MODEL 1
REMARK VINA RESULT:    -6.765      0.000      0.000
REMARK INTER + INTRA:          -9.059
REMARK INTER:                  -8.541
REMARK INTRA:                  -0.518
REMARK UNBOUND:                -0.515
REMARK  Name = /content/drive/MyDrive/Docking_Pipeline/raw_data/ligand_3672_3D.pdb
REMARK  8 active torsions:
REMARK  status: ('A' for Active; 'I' for Inactive)
REMARK    1  A    between atoms: C1_1  and  C2_2
REMARK    2  A    between atoms: C2_2  and  C3_3
REMARK    3  A    between atoms: C2_2  and  C4_4
REMARK    4  A    between atoms: C4_4  and  C5_5
REMARK    5  A    between atoms: C8_8  and  C11_11
REMARK    6  A    between atoms: C11_11  and  C12_12
REMARK    7  A    between atoms: C11_11  and  C13_13
REMARK    8  A    between atoms: C13_13  and  O2_15
REMARK                            x       y       z     vdW  Elec       q    Type
REMARK                         _______ _______ _______ _____ _____    ______ ____
ROOT
ATOM      1  C5  UNL     1      15.225  19.213   3.769  0.00  0.00    +0.000 A 
ATOM      2  C6  UNL     1      14.905  19.649   5.059  0.00  0.00    +0.000 A 
ATOM      3  C7  UNL     1      14.288  20.886   5.260  0.00  0.00    +0.000 A 
ATOM      4  C8  UNL     1      13.979  21.719   4.176  0.00  0.00    +0.000 A 
ATOM      5  C9  UNL     1      14.304  21.280   2.884  0.00  0.00    +0.000 A 
ATOM      6  C10 UNL     1      14.920  20.041   2.683  0.00  0.00    +0.000 A 
ENDROOT
BRANCH   4   7
ATOM      7  C11 UNL     1      13.297  23.065   4.367  0.00  0.00    +0.000 C 
ATOM      8  C12 UNL     1      11.837  22.908   4.794  0.00  0.00    +0.000 C 
BRANCH   7   9
ATOM      9  C13 UNL     1      14.013  23.970   5.354  0.00  0.00    +0.000 C 
ATOM     10  O1  UNL     1      13.727  24.198   6.518  0.00  0.00    +0.000 OA
BRANCH   9  11
ATOM     11  O2  UNL     1      15.066  24.607   4.792  0.00  0.00    +0.000 OA
ATOM     12  H18 UNL     1      14.802  25.551   4.811  0.00  0.00    +0.000 HD
ENDBRANCH   9  11
ENDBRANCH   7   9
ENDBRANCH   4   7
BRANCH   1  13
ATOM     13  C4  UNL     1      15.888  17.874   3.551  0.00  0.00    +0.000 C 
BRANCH  13  15
ATOM     14  C1  UNL     1      18.373  17.518   3.685  0.00  0.00    +0.000 C 
ATOM     15  C2  UNL     1      17.220  17.957   2.779  0.00  0.00    +0.000 C 
ATOM     16  C3  UNL     1      17.203  17.097   1.513  0.00  0.00    +0.000 C 
ENDBRANCH  13  15
ENDBRANCH   1  13
TORSDOF 5
ENDMDL
MODEL 2
REMARK VINA RESULT:    -6.427      4.499      8.726
REMARK INTER + INTRA:          -8.633
REMARK INTER:                  -8.129
REMARK INTRA:                  -0.504
REMARK UNBOUND:                -0.515
REMARK  Name = /content/drive/MyDrive/Docking_Pipeline/raw_data/ligand_3672_3D.pdb
REMARK  8 active torsions:
REMARK  status: ('A' for Active; 'I' for Inactive)
REMARK    1  A    between atoms: C1_1  and  C2_2
REMARK    2  A    between atoms: C2_2  and  C3_3
REMARK    3  A    between atoms: C2_2  and  C4_4
REMARK    4  A    between atoms: C4_4  and  C5_5
REMARK    5  A    between atoms: C8_8  and  C11_11
REMARK    6  A    between atoms: C11_11  and  C12_12
REMARK    7  A    between atoms: C11_11  and  C13_13
REMARK    8  A    between atoms: C13_13  and  O2_15
REMARK                            x       y       z     vdW  Elec       q    Type
REMARK                         _______ _______ _______ _____ _____    ______ ____
ROOT
ATOM      1  C5  UNL     1      10.410  25.274   8.419  0.00  0.00    +0.000 A 
ATOM      2  C6  UNL     1      10.427  24.323   7.393  0.00  0.00    +0.000 A 
ATOM      3  C7  UNL     1      11.637  23.865   6.867  0.00  0.00    +0.000 A 
ATOM      4  C8  UNL     1      12.861  24.348   7.353  0.00  0.00    +0.000 A 
ATOM      5  C9  UNL     1      12.839  25.304   8.380  0.00  0.00    +0.000 A 
ATOM      6  C10 UNL     1      11.628  25.762   8.906  0.00  0.00    +0.000 A 
ENDROOT
BRANCH   4   7
ATOM      7  C11 UNL     1      14.191  23.856   6.805  0.00  0.00    +0.000 C 
ATOM      8  C12 UNL     1      14.582  22.499   7.392  0.00  0.00    +0.000 C 
BRANCH   7   9
ATOM      9  C13 UNL     1      14.229  23.776   5.290  0.00  0.00    +0.000 C 
ATOM     10  O1  UNL     1      14.118  22.789   4.581  0.00  0.00    +0.000 OA
BRANCH   9  11
ATOM     11  O2  UNL     1      14.461  24.980   4.720  0.00  0.00    +0.000 OA
ATOM     12  H18 UNL     1      13.564  25.311   4.504  0.00  0.00    +0.000 HD
ENDBRANCH   9  11
ENDBRANCH   7   9
ENDBRANCH   4   7
BRANCH   1  13
ATOM     13  C4  UNL     1       9.102  25.767   8.990  0.00  0.00    +0.000 C 
BRANCH  13  15
ATOM     14  C1  UNL     1       7.106  27.009   8.101  0.00  0.00    +0.000 C 
ATOM     15  C2  UNL     1       8.611  27.090   8.369  0.00  0.00    +0.000 C 
ATOM     16  C3  UNL     1       8.910  28.291   9.269  0.00  0.00    +0.000 C 
ENDBRANCH  13  15
ENDBRANCH   1  13
TORSDOF 5
ENDMDL
MODEL 3
REMARK VINA RESULT:    -6.419      1.169      2.068
REMARK INTER + INTRA:          -8.622
REMARK INTER:                  -8.107
REMARK INTRA:                  -0.515
REMARK UNBOUND:                -0.515
REMARK  Name = /content/drive/MyDrive/Docking_Pipeline/raw_data/ligand_3672_3D.pdb
REMARK  8 active torsions:
REMARK  status: ('A' for Active; 'I' for Inactive)
REMARK    1  A    between atoms: C1_1  and  C2_2
REMARK    2  A    between atoms: C2_2  and  C3_3
REMARK    3  A    between atoms: C2_2  and  C4_4
REMARK    4  A    between atoms: C4_4  and  C5_5
REMARK    5  A    between atoms: C8_8  and  C11_11
REMARK    6  A    between atoms: C11_11  and  C12_12
REMARK    7  A    between atoms: C11_11  and  C13_13
REMARK    8  A    between atoms: C13_13  and  O2_15
REMARK                            x       y       z     vdW  Elec       q    Type
REMARK                         _______ _______ _______ _____ _____    ______ ____
ROOT
ATOM      1  C5  UNL     1      15.252  20.516   4.223  0.00  0.00    +0.000 A 
ATOM      2  C6  UNL     1      14.573  21.030   3.113  0.00  0.00    +0.000 A 
ATOM      3  C7  UNL     1      13.651  22.069   3.261  0.00  0.00    +0.000 A 
ATOM      4  C8  UNL     1      13.384  22.619   4.523  0.00  0.00    +0.000 A 
ATOM      5  C9  UNL     1      14.065  22.098   5.634  0.00  0.00    +0.000 A 
ATOM      6  C10 UNL     1      14.988  21.059   5.486  0.00  0.00    +0.000 A 
ENDROOT
BRANCH   4   7
ATOM      7  C11 UNL     1      12.394  23.758   4.708  0.00  0.00    +0.000 C 
ATOM      8  C12 UNL     1      11.234  23.360   5.622  0.00  0.00    +0.000 C 
BRANCH   7   9
ATOM      9  C13 UNL     1      13.030  25.033   5.232  0.00  0.00    +0.000 C 
ATOM     10  O1  UNL     1      12.647  25.753   6.140  0.00  0.00    +0.000 OA
BRANCH   9  11
ATOM     11  O2  UNL     1      14.132  25.381   4.529  0.00  0.00    +0.000 OA
ATOM     12  H18 UNL     1      13.998  24.947   3.660  0.00  0.00    +0.000 HD
ENDBRANCH   9  11
ENDBRANCH   7   9
ENDBRANCH   4   7
BRANCH   1  13
ATOM     13  C4  UNL     1      16.251  19.396   4.064  0.00  0.00    +0.000 C 
BRANCH  13  15
ATOM     14  C1  UNL     1      16.755  17.471   2.528  0.00  0.00    +0.000 C 
ATOM     15  C2  UNL     1      15.675  18.139   3.382  0.00  0.00    +0.000 C 
ATOM     16  C3  UNL     1      15.128  17.135   4.400  0.00  0.00    +0.000 C 
ENDBRANCH  13  15
ENDBRANCH   1  13
TORSDOF 5
ENDMDL
MODEL 4
REMARK VINA RESULT:    -6.386      5.557      6.988
REMARK INTER + INTRA:          -8.581
REMARK INTER:                  -8.049
REMARK INTRA:                  -0.532
REMARK UNBOUND:                -0.515
REMARK  Name = /content/drive/MyDrive/Docking_Pipeline/raw_data/ligand_3672_3D.pdb
REMARK  8 active torsions:
REMARK  status: ('A' for Active; 'I' for Inactive)
REMARK    1  A    between atoms: C1_1  and  C2_2
REMARK    2  A    between atoms: C2_2  and  C3_3
REMARK    3  A    between atoms: C2_2  and  C4_4
REMARK    4  A    between atoms: C4_4  and  C5_5
REMARK    5  A    between atoms: C8_8  and  C11_11
REMARK    6  A    between atoms: C11_11  and  C12_12
REMARK    7  A    between atoms: C11_11  and  C13_13
REMARK    8  A    between atoms: C13_13  and  O2_15
REMARK                            x       y       z     vdW  Elec       q    Type
REMARK                         _______ _______ _______ _____ _____    ______ ____
ROOT
ATOM      1  C5  UNL     1      13.006  24.079   7.475  0.00  0.00    +0.000 A 
ATOM      2  C6  UNL     1      11.839  23.700   6.803  0.00  0.00    +0.000 A 
ATOM      3  C7  UNL     1      10.657  24.427   6.964  0.00  0.00    +0.000 A 
ATOM      4  C8  UNL     1      10.612  25.549   7.803  0.00  0.00    +0.000 A 
ATOM      5  C9  UNL     1      11.783  25.924   8.478  0.00  0.00    +0.000 A 
ATOM      6  C10 UNL     1      12.966  25.197   8.315  0.00  0.00    +0.000 A 
ENDROOT
BRANCH   4   7
ATOM      7  C11 UNL     1       9.340  26.363   7.986  0.00  0.00    +0.000 C 
ATOM      8  C12 UNL     1       9.151  26.803   9.438  0.00  0.00    +0.000 C 
BRANCH   7   9
ATOM      9  C13 UNL     1       9.265  27.578   7.079  0.00  0.00    +0.000 C 
ATOM     10  O1  UNL     1       9.200  27.611   5.861  0.00  0.00    +0.000 OA
BRANCH   9  11
ATOM     11  O2  UNL     1       9.327  28.738   7.773  0.00  0.00    +0.000 OA
ATOM     12  H18 UNL     1      10.284  28.950   7.782  0.00  0.00    +0.000 HD
ENDBRANCH   9  11
ENDBRANCH   7   9
ENDBRANCH   4   7
BRANCH   1  13
ATOM     13  C4  UNL     1      14.285  23.297   7.298  0.00  0.00    +0.000 C 
BRANCH  13  15
ATOM     14  C1  UNL     1      14.828  21.830   9.266  0.00  0.00    +0.000 C 
ATOM     15  C2  UNL     1      15.121  23.170   8.587  0.00  0.00    +0.000 C 
ATOM     16  C3  UNL     1      16.621  23.292   8.311  0.00  0.00    +0.000 C 
ENDBRANCH  13  15
ENDBRANCH   1  13
TORSDOF 5
ENDMDL
MODEL 5
REMARK VINA RESULT:    -6.367      2.682      5.952
REMARK INTER + INTRA:          -8.557
REMARK INTER:                  -8.062
REMARK INTRA:                  -0.495
REMARK UNBOUND:                -0.515
REMARK  Name = /content/drive/MyDrive/Docking_Pipeline/raw_data/ligand_3672_3D.pdb
REMARK  8 active torsions:
REMARK  status: ('A' for Active; 'I' for Inactive)
REMARK    1  A    between atoms: C1_1  and  C2_2
REMARK    2  A    between atoms: C2_2  and  C3_3
REMARK    3  A    between atoms: C2_2  and  C4_4
REMARK    4  A    between atoms: C4_4  and  C5_5
REMARK    5  A    between atoms: C8_8  and  C11_11
REMARK    6  A    between atoms: C11_11  and  C12_12
REMARK    7  A    between atoms: C11_11  and  C13_13
REMARK    8  A    between atoms: C13_13  and  O2_15
REMARK                            x       y       z     vdW  Elec       q    Type
REMARK                         _______ _______ _______ _____ _____    ______ ____
ROOT
ATOM      1  C5  UNL     1      13.679  21.809   4.395  0.00  0.00    +0.000 A 
ATOM      2  C6  UNL     1      14.072  20.999   5.465  0.00  0.00    +0.000 A 
ATOM      3  C7  UNL     1      14.889  19.885   5.252  0.00  0.00    +0.000 A 
ATOM      4  C8  UNL     1      15.330  19.553   3.963  0.00  0.00    +0.000 A 
ATOM      5  C9  UNL     1      14.931  20.367   2.892  0.00  0.00    +0.000 A 
ATOM      6  C10 UNL     1      14.114  21.482   3.106  0.00  0.00    +0.000 A 
ENDROOT
BRANCH   4   7
ATOM      7  C11 UNL     1      16.229  18.354   3.708  0.00  0.00    +0.000 C 
ATOM      8  C12 UNL     1      15.784  17.561   2.478  0.00  0.00    +0.000 C 
BRANCH   7   9
ATOM      9  C13 UNL     1      17.696  18.717   3.566  0.00  0.00    +0.000 C 
ATOM     10  O1  UNL     1      18.481  19.050   4.439  0.00  0.00    +0.000 OA
BRANCH   9  11
ATOM     11  O2  UNL     1      18.107  18.689   2.278  0.00  0.00    +0.000 OA
ATOM     12  H18 UNL     1      17.755  19.525   1.905  0.00  0.00    +0.000 HD
ENDBRANCH   9  11
ENDBRANCH   7   9
ENDBRANCH   4   7
BRANCH   1  13
ATOM     13  C4  UNL     1      12.800  23.014   4.625  0.00  0.00    +0.000 C 
BRANCH  13  15
ATOM     14  C1  UNL     1      10.299  23.182   4.821  0.00  0.00    +0.000 C 
ATOM     15  C2  UNL     1      11.466  22.968   3.853  0.00  0.00    +0.000 C 
ATOM     16  C3  UNL     1      11.411  24.018   2.740  0.00  0.00    +0.000 C 
ENDBRANCH  13  15
ENDBRANCH   1  13
TORSDOF 5
ENDMDL
MODEL 6
REMARK VINA RESULT:    -6.130      4.569      5.988
REMARK INTER + INTRA:          -8.257
REMARK INTER:                  -7.803
REMARK INTRA:                  -0.455
REMARK UNBOUND:                -0.515
REMARK  Name = /content/drive/MyDrive/Docking_Pipeline/raw_data/ligand_3672_3D.pdb
REMARK  8 active torsions:
REMARK  status: ('A' for Active; 'I' for Inactive)
REMARK    1  A    between atoms: C1_1  and  C2_2
REMARK    2  A    between atoms: C2_2  and  C3_3
REMARK    3  A    between atoms: C2_2  and  C4_4
REMARK    4  A    between atoms: C4_4  and  C5_5
REMARK    5  A    between atoms: C8_8  and  C11_11
REMARK    6  A    between atoms: C11_11  and  C12_12
REMARK    7  A    between atoms: C11_11  and  C13_13
REMARK    8  A    between atoms: C13_13  and  O2_15
REMARK                            x       y       z     vdW  Elec       q    Type
REMARK                         _______ _______ _______ _____ _____    ______ ____
ROOT
ATOM      1  C5  UNL     1      11.858  23.153   6.122  0.00  0.00    +0.000 A 
ATOM      2  C6  UNL     1      12.291  24.272   6.840  0.00  0.00    +0.000 A 
ATOM      3  C7  UNL     1      13.358  24.173   7.738  0.00  0.00    +0.000 A 
ATOM      4  C8  UNL     1      14.014  22.951   7.941  0.00  0.00    +0.000 A 
ATOM      5  C9  UNL     1      13.574  21.830   7.221  0.00  0.00    +0.000 A 
ATOM      6  C10 UNL     1      12.508  21.930   6.322  0.00  0.00    +0.000 A 
ENDROOT
BRANCH   4   7
ATOM      7  C11 UNL     1      15.184  22.819   8.904  0.00  0.00    +0.000 C 
ATOM      8  C12 UNL     1      15.093  21.542   9.739  0.00  0.00    +0.000 C 
BRANCH   7   9
ATOM      9  C13 UNL     1      16.539  22.877   8.221  0.00  0.00    +0.000 C 
ATOM     10  O1  UNL     1      17.512  22.164   8.408  0.00  0.00    +0.000 OA
BRANCH   9  11
ATOM     11  O2  UNL     1      16.623  23.897   7.337  0.00  0.00    +0.000 OA
ATOM     12  H18 UNL     1      17.026  24.622   7.859  0.00  0.00    +0.000 HD
ENDBRANCH   9  11
ENDBRANCH   7   9
ENDBRANCH   4   7
BRANCH   1  13
ATOM     13  C4  UNL     1      10.709  23.261   5.149  0.00  0.00    +0.000 C 
BRANCH  13  15
ATOM     14  C1  UNL     1       9.647  22.004   3.249  0.00  0.00    +0.000 C 
ATOM     15  C2  UNL     1      10.963  22.554   3.804  0.00  0.00    +0.000 C 
ATOM     16  C3  UNL     1      11.605  23.490   2.777  0.00  0.00    +0.000 C 
ENDBRANCH  13  15
ENDBRANCH   1  13
TORSDOF 5
ENDMDL
MODEL 7
REMARK VINA RESULT:    -6.116      4.164      6.592
REMARK INTER + INTRA:          -8.240
REMARK INTER:                  -7.725
REMARK INTRA:                  -0.515
REMARK UNBOUND:                -0.515
REMARK  Name = /content/drive/MyDrive/Docking_Pipeline/raw_data/ligand_3672_3D.pdb
REMARK  8 active torsions:
REMARK  status: ('A' for Active; 'I' for Inactive)
REMARK    1  A    between atoms: C1_1  and  C2_2
REMARK    2  A    between atoms: C2_2  and  C3_3
REMARK    3  A    between atoms: C2_2  and  C4_4
REMARK    4  A    between atoms: C4_4  and  C5_5
REMARK    5  A    between atoms: C8_8  and  C11_11
REMARK    6  A    between atoms: C11_11  and  C12_12
REMARK    7  A    between atoms: C11_11  and  C13_13
REMARK    8  A    between atoms: C13_13  and  O2_15
REMARK                            x       y       z     vdW  Elec       q    Type
REMARK                         _______ _______ _______ _____ _____    ______ ____
ROOT
ATOM      1  C5  UNL     1      12.805  24.921   5.852  0.00  0.00    +0.000 A 
ATOM      2  C6  UNL     1      12.875  24.996   7.247  0.00  0.00    +0.000 A 
ATOM      3  C7  UNL     1      11.812  25.521   7.985  0.00  0.00    +0.000 A 
ATOM      4  C8  UNL     1      10.654  25.987   7.347  0.00  0.00    +0.000 A 
ATOM      5  C9  UNL     1      10.589  25.913   5.947  0.00  0.00    +0.000 A 
ATOM      6  C10 UNL     1      11.653  25.386   5.209  0.00  0.00    +0.000 A 
ENDROOT
BRANCH   4   7
ATOM      7  C11 UNL     1       9.479  26.553   8.129  0.00  0.00    +0.000 C 
ATOM      8  C12 UNL     1       9.461  26.048   9.572  0.00  0.00    +0.000 C 
BRANCH   7   9
ATOM      9  C13 UNL     1       9.426  28.070   8.128  0.00  0.00    +0.000 C 
ATOM     10  O1  UNL     1       8.761  28.804   7.415  0.00  0.00    +0.000 OA
BRANCH   9  11
ATOM     11  O2  UNL     1      10.282  28.612   9.024  0.00  0.00    +0.000 OA
ATOM     12  H18 UNL     1       9.785  28.577   9.868  0.00  0.00    +0.000 HD
ENDBRANCH   9  11
ENDBRANCH   7   9
ENDBRANCH   4   7
BRANCH   1  13
ATOM     13  C4  UNL     1      13.951  24.349   5.053  0.00  0.00    +0.000 C 
BRANCH  13  15
ATOM     14  C1  UNL     1      12.936  22.051   5.033  0.00  0.00    +0.000 C 
ATOM     15  C2  UNL     1      14.209  22.852   5.315  0.00  0.00    +0.000 C 
ATOM     16  C3  UNL     1      15.359  22.311   4.462  0.00  0.00    +0.000 C 
ENDBRANCH  13  15
ENDBRANCH   1  13
TORSDOF 5
ENDMDL
MODEL 8
REMARK VINA RESULT:    -6.107      4.116      8.404
REMARK INTER + INTRA:          -8.228
REMARK INTER:                  -7.698
REMARK INTRA:                  -0.530
REMARK UNBOUND:                -0.515
REMARK  Name = /content/drive/MyDrive/Docking_Pipeline/raw_data/ligand_3672_3D.pdb
REMARK  8 active torsions:
REMARK  status: ('A' for Active; 'I' for Inactive)
REMARK    1  A    between atoms: C1_1  and  C2_2
REMARK    2  A    between atoms: C2_2  and  C3_3
REMARK    3  A    between atoms: C2_2  and  C4_4
REMARK    4  A    between atoms: C4_4  and  C5_5
REMARK    5  A    between atoms: C8_8  and  C11_11
REMARK    6  A    between atoms: C11_11  and  C12_12
REMARK    7  A    between atoms: C11_11  and  C13_13
REMARK    8  A    between atoms: C13_13  and  O2_15
REMARK                            x       y       z     vdW  Elec       q    Type
REMARK                         _______ _______ _______ _____ _____    ______ ____
ROOT
ATOM      1  C5  UNL     1      11.290  25.730   7.670  0.00  0.00    +0.000 A 
ATOM      2  C6  UNL     1      11.249  24.700   6.725  0.00  0.00    +0.000 A 
ATOM      3  C7  UNL     1      12.258  23.735   6.680  0.00  0.00    +0.000 A 
ATOM      4  C8  UNL     1      13.334  23.778   7.579  0.00  0.00    +0.000 A 
ATOM      5  C9  UNL     1      13.372  24.814   8.523  0.00  0.00    +0.000 A 
ATOM      6  C10 UNL     1      12.362  25.779   8.568  0.00  0.00    +0.000 A 
ENDROOT
BRANCH   4   7
ATOM      7  C11 UNL     1      14.438  22.732   7.558  0.00  0.00    +0.000 C 
ATOM      8  C12 UNL     1      14.491  21.987   6.224  0.00  0.00    +0.000 C 
BRANCH   7   9
ATOM      9  C13 UNL     1      15.812  23.298   7.871  0.00  0.00    +0.000 C 
ATOM     10  O1  UNL     1      16.450  23.206   8.908  0.00  0.00    +0.000 OA
BRANCH   9  11
ATOM     11  O2  UNL     1      16.313  24.021   6.844  0.00  0.00    +0.000 OA
ATOM     12  H18 UNL     1      15.715  23.807   6.097  0.00  0.00    +0.000 HD
ENDBRANCH   9  11
ENDBRANCH   7   9
ENDBRANCH   4   7
BRANCH   1  13
ATOM     13  C4  UNL     1      10.198  26.772   7.722  0.00  0.00    +0.000 C 
BRANCH  13  15
ATOM     14  C1  UNL     1       8.305  27.841   8.982  0.00  0.00    +0.000 C 
ATOM     15  C2  UNL     1       9.356  26.729   9.012  0.00  0.00    +0.000 C 
ATOM     16  C3  UNL     1       8.669  25.374   9.202  0.00  0.00    +0.000 C 
ENDBRANCH  13  15
ENDBRANCH   1  13
TORSDOF 5
ENDMDL
MODEL 9
REMARK VINA RESULT:    -6.029      3.283      6.138
REMARK INTER + INTRA:          -8.129
REMARK INTER:                  -7.610
REMARK INTRA:                  -0.519
REMARK UNBOUND:                -0.515
REMARK  Name = /content/drive/MyDrive/Docking_Pipeline/raw_data/ligand_3672_3D.pdb
REMARK  8 active torsions:
REMARK  status: ('A' for Active; 'I' for Inactive)
REMARK    1  A    between atoms: C1_1  and  C2_2
REMARK    2  A    between atoms: C2_2  and  C3_3
REMARK    3  A    between atoms: C2_2  and  C4_4
REMARK    4  A    between atoms: C4_4  and  C5_5
REMARK    5  A    between atoms: C8_8  and  C11_11
REMARK    6  A    between atoms: C11_11  and  C12_12
REMARK    7  A    between atoms: C11_11  and  C13_13
REMARK    8  A    between atoms: C13_13  and  O2_15
REMARK                            x       y       z     vdW  Elec       q    Type
REMARK                         _______ _______ _______ _____ _____    ______ ____
ROOT
ATOM      1  C5  UNL     1      14.991  21.385   4.905  0.00  0.00    +0.000 A 
ATOM      2  C6  UNL     1      15.864  20.593   5.659  0.00  0.00    +0.000 A 
ATOM      3  C7  UNL     1      16.375  19.402   5.137  0.00  0.00    +0.000 A 
ATOM      4  C8  UNL     1      16.023  18.972   3.849  0.00  0.00    +0.000 A 
ATOM      5  C9  UNL     1      15.145  19.767   3.098  0.00  0.00    +0.000 A 
ATOM      6  C10 UNL     1      14.635  20.959   3.620  0.00  0.00    +0.000 A 
ENDROOT
BRANCH   4   7
ATOM      7  C11 UNL     1      16.575  17.685   3.255  0.00  0.00    +0.000 C 
ATOM      8  C12 UNL     1      16.648  17.749   1.729  0.00  0.00    +0.000 C 
BRANCH   7   9
ATOM      9  C13 UNL     1      17.935  17.299   3.807  0.00  0.00    +0.000 C 
ATOM     10  O1  UNL     1      18.189  16.587   4.766  0.00  0.00    +0.000 OA
BRANCH   9  11
ATOM     11  O2  UNL     1      18.947  17.889   3.132  0.00  0.00    +0.000 OA
ATOM     12  H18 UNL     1      18.519  18.658   2.699  0.00  0.00    +0.000 HD
ENDBRANCH   9  11
ENDBRANCH   7   9
ENDBRANCH   4   7
BRANCH   1  13
ATOM     13  C4  UNL     1      14.442  22.674   5.466  0.00  0.00    +0.000 C 
BRANCH  13  15
ATOM     14  C1  UNL     1      13.303  23.870   7.361  0.00  0.00    +0.000 C 
ATOM     15  C2  UNL     1      13.673  22.499   6.791  0.00  0.00    +0.000 C 
ATOM     16  C3  UNL     1      12.409  21.655   6.613  0.00  0.00    +0.000 C 
ENDBRANCH  13  15
ENDBRANCH   1  13
TORSDOF 5
ENDMDL
