MODEL 1
REMARK VINA RESULT:    -9.338      0.000      0.000
REMARK INTER + INTRA:         -12.811
REMARK INTER:                 -12.097
REMARK INTRA:                  -0.714
REMARK UNBOUND:                -0.197
REMARK  Name = /content/drive/MyDrive/Docking_Pipeline/raw_data/ligand_5291_3D.pdb
REMARK  8 active torsions:
REMARK  status: ('A' for Active; 'I' for Inactive)
REMARK    1  A    between atoms: C1_1  and  C2_2
REMARK    2  A    between atoms: C3_3  and  N4_25
REMARK    3  A    between atoms: C5_5  and  N1_8
REMARK    4  A    between atoms: C8_9  and  C9_11
REMARK    5  A    between atoms: C12_14  and  C15_17
REMARK    6  A    between atoms: C15_17  and  N2_18
REMARK    7  A    between atoms: N3_21  and  C20_24
REMARK    8  A    between atoms: C24_30  and  C25_32
REMARK                            x       y       z     vdW  Elec       q    Type
REMARK                         _______ _______ _______ _____ _____    ______ ____
ROOT
ATOM      1  C1  UNL     1      18.037  17.861   3.587  0.00  0.00    +0.000 C 
ATOM      2  C2  UNL     1      16.825  18.753   3.552  0.00  0.00    +0.000 A 
ATOM      3  C3  UNL     1      16.264  19.301   4.728  0.00  0.00    +0.000 A 
ATOM      4  C4  UNL     1      15.126  20.113   4.592  0.00  0.00    +0.000 A 
ATOM      5  C5  UNL     1      14.561  20.414   3.342  0.00  0.00    +0.000 A 
ATOM      6  C6  UNL     1      15.141  19.884   2.197  0.00  0.00    +0.000 A 
ATOM      7  C7  UNL     1      16.262  19.060   2.301  0.00  0.00    +0.000 A 
ENDROOT
BRANCH   3   8
ATOM      8  N4  UNL     1      16.842  19.022   5.977  0.00  0.00    +0.000 N 
ATOM      9  C21 UNL     1      17.033  19.743   7.152  0.00  0.00    +0.000 A 
ATOM     10  N5  UNL     1      16.597  20.999   7.304  0.00  0.00    +0.000 NA
ATOM     11  C22 UNL     1      16.845  21.600   8.479  0.00  0.00    +0.000 A 
ATOM     12  C23 UNL     1      17.510  20.994   9.515  0.00  0.00    +0.000 A 
ATOM     13  C24 UNL     1      17.925  19.696   9.296  0.00  0.00    +0.000 A 
ATOM     14  N6  UNL     1      17.694  19.077   8.116  0.00  0.00    +0.000 NA
ATOM     15  H25 UNL     1      17.268  18.114   6.093  0.00  0.00    +0.000 HD
BRANCH  13  16
ATOM     16  C25 UNL     1      18.652  18.898  10.303  0.00  0.00    +0.000 A 
ATOM     17  C26 UNL     1      19.000  17.566  10.057  0.00  0.00    +0.000 A 
ATOM     18  N7  UNL     1      19.671  16.758  10.919  0.00  0.00    +0.000 NA
ATOM     19  C27 UNL     1      20.018  17.294  12.106  0.00  0.00    +0.000 A 
ATOM     20  C28 UNL     1      19.728  18.598  12.466  0.00  0.00    +0.000 A 
ATOM     21  C29 UNL     1      19.038  19.400  11.556  0.00  0.00    +0.000 A 
ENDBRANCH  13  16
ENDBRANCH   3   8
BRANCH   5  22
ATOM     22  N1  UNL     1      13.417  21.239   3.336  0.00  0.00    +0.000 N 
ATOM     23  C8  UNL     1      13.286  22.497   3.894  0.00  0.00    +0.000 C 
ATOM     24  O1  UNL     1      14.117  23.117   4.545  0.00  0.00    +0.000 OA
ATOM     25  H7  UNL     1      12.587  20.831   2.922  0.00  0.00    +0.000 HD
BRANCH  23  26
ATOM     26  C9  UNL     1      11.950  23.117   3.689  0.00  0.00    +0.000 A 
ATOM     27  C10 UNL     1      11.685  23.905   2.564  0.00  0.00    +0.000 A 
ATOM     28  C11 UNL     1      10.424  24.486   2.407  0.00  0.00    +0.000 A 
ATOM     29  C12 UNL     1       9.418  24.278   3.363  0.00  0.00    +0.000 A 
ATOM     30  C13 UNL     1       9.699  23.490   4.490  0.00  0.00    +0.000 A 
ATOM     31  C14 UNL     1      10.961  22.920   4.658  0.00  0.00    +0.000 A 
BRANCH  29  32
ATOM     32  C15 UNL     1       8.063  24.938   3.194  0.00  0.00    +0.000 C 
BRANCH  32  33
ATOM     33  N2  UNL     1       7.694  25.768   4.346  0.00  0.00    +0.000 NA
ATOM     34  C16 UNL     1       6.245  26.076   4.375  0.00  0.00    +0.000 C 
ATOM     35  C17 UNL     1       5.875  27.371   5.147  0.00  0.00    +0.000 C 
ATOM     36  N3  UNL     1       6.807  27.758   6.221  0.00  0.00    +0.000 NA
ATOM     37  C18 UNL     1       8.186  27.835   5.683  0.00  0.00    +0.000 C 
ATOM     38  C19 UNL     1       8.472  27.013   4.397  0.00  0.00    +0.000 C 
ATOM     39  C20 UNL     1       6.733  26.808   7.335  0.00  0.00    +0.000 C 
ENDBRANCH  32  33
ENDBRANCH  29  32
ENDBRANCH  23  26
ENDBRANCH   5  22
TORSDOF 6
ENDMDL
MODEL 2
REMARK VINA RESULT:    -9.160      2.244     11.920
REMARK INTER + INTRA:         -12.570
REMARK INTER:                 -12.060
REMARK INTRA:                  -0.510
REMARK UNBOUND:                -0.197
REMARK  Name = /content/drive/MyDrive/Docking_Pipeline/raw_data/ligand_5291_3D.pdb
REMARK  8 active torsions:
REMARK  status: ('A' for Active; 'I' for Inactive)
REMARK    1  A    between atoms: C1_1  and  C2_2
REMARK    2  A    between atoms: C3_3  and  N4_25
REMARK    3  A    between atoms: C5_5  and  N1_8
REMARK    4  A    between atoms: C8_9  and  C9_11
REMARK    5  A    between atoms: C12_14  and  C15_17
REMARK    6  A    between atoms: C15_17  and  N2_18
REMARK    7  A    between atoms: N3_21  and  C20_24
REMARK    8  A    between atoms: C24_30  and  C25_32
REMARK                            x       y       z     vdW  Elec       q    Type
REMARK                         _______ _______ _______ _____ _____    ______ ____
ROOT
ATOM      1  C1  UNL     1      11.753  23.249   2.500  0.00  0.00    +0.000 C 
ATOM      2  C2  UNL     1      12.662  22.749   3.591  0.00  0.00    +0.000 A 
ATOM      3  C3  UNL     1      12.494  23.133   4.941  0.00  0.00    +0.000 A 
ATOM      4  C4  UNL     1      13.402  22.622   5.883  0.00  0.00    +0.000 A 
ATOM      5  C5  UNL     1      14.431  21.733   5.532  0.00  0.00    +0.000 A 
ATOM      6  C6  UNL     1      14.564  21.350   4.204  0.00  0.00    +0.000 A 
ATOM      7  C7  UNL     1      13.689  21.855   3.241  0.00  0.00    +0.000 A 
ENDROOT
BRANCH   3   8
ATOM      8  N4  UNL     1      11.450  24.003   5.297  0.00  0.00    +0.000 N 
ATOM      9  C21 UNL     1      11.203  24.846   6.376  0.00  0.00    +0.000 A 
ATOM     10  N5  UNL     1      12.075  25.005   7.379  0.00  0.00    +0.000 NA
ATOM     11  C22 UNL     1      11.726  25.838   8.373  0.00  0.00    +0.000 A 
ATOM     12  C23 UNL     1      10.539  26.526   8.404  0.00  0.00    +0.000 A 
ATOM     13  C24 UNL     1       9.690  26.324   7.335  0.00  0.00    +0.000 A 
ATOM     14  N6  UNL     1      10.019  25.481   6.330  0.00  0.00    +0.000 NA
ATOM     15  H25 UNL     1      10.650  24.036   4.683  0.00  0.00    +0.000 HD
BRANCH  13  16
ATOM     16  C25 UNL     1       8.377  26.986   7.210  0.00  0.00    +0.000 A 
ATOM     17  C26 UNL     1       7.807  27.232   5.956  0.00  0.00    +0.000 A 
ATOM     18  N7  UNL     1       6.605  27.828   5.743  0.00  0.00    +0.000 NA
ATOM     19  C27 UNL     1       5.919  28.214   6.835  0.00  0.00    +0.000 A 
ATOM     20  C28 UNL     1       6.377  28.028   8.128  0.00  0.00    +0.000 A 
ATOM     21  C29 UNL     1       7.617  27.412   8.310  0.00  0.00    +0.000 A 
ENDBRANCH  13  16
ENDBRANCH   3   8
BRANCH   5  22
ATOM     22  N1  UNL     1      15.279  21.291   6.569  0.00  0.00    +0.000 N 
ATOM     23  C8  UNL     1      16.005  22.070   7.451  0.00  0.00    +0.000 C 
ATOM     24  O1  UNL     1      16.094  23.291   7.471  0.00  0.00    +0.000 OA
ATOM     25  H7  UNL     1      15.407  20.288   6.629  0.00  0.00    +0.000 HD
BRANCH  23  26
ATOM     26  C9  UNL     1      16.785  21.291   8.449  0.00  0.00    +0.000 A 
ATOM     27  C10 UNL     1      18.181  21.361   8.487  0.00  0.00    +0.000 A 
ATOM     28  C11 UNL     1      18.886  20.605   9.427  0.00  0.00    +0.000 A 
ATOM     29  C12 UNL     1      18.206  19.786  10.340  0.00  0.00    +0.000 A 
ATOM     30  C13 UNL     1      16.804  19.721  10.288  0.00  0.00    +0.000 A 
ATOM     31  C14 UNL     1      16.097  20.463   9.341  0.00  0.00    +0.000 A 
BRANCH  29  32
ATOM     32  C15 UNL     1      18.985  18.950  11.337  0.00  0.00    +0.000 C 
BRANCH  32  33
ATOM     33  N2  UNL     1      19.517  17.718  10.744  0.00  0.00    +0.000 NA
ATOM     34  C16 UNL     1      18.454  16.725  10.466  0.00  0.00    +0.000 C 
ATOM     35  C17 UNL     1      18.942  15.252  10.422  0.00  0.00    +0.000 C 
ATOM     36  N3  UNL     1      20.351  15.061  10.032  0.00  0.00    +0.000 NA
ATOM     37  C18 UNL     1      21.225  15.885  10.899  0.00  0.00    +0.000 C 
ATOM     38  C19 UNL     1      20.562  17.114  11.580  0.00  0.00    +0.000 C 
ATOM     39  C20 UNL     1      20.545  15.401   8.619  0.00  0.00    +0.000 C 
ENDBRANCH  32  33
ENDBRANCH  29  32
ENDBRANCH  23  26
ENDBRANCH   5  22
TORSDOF 6
ENDMDL
MODEL 3
REMARK VINA RESULT:    -9.044      1.688      2.136
REMARK INTER + INTRA:         -12.413
REMARK INTER:                 -11.745
REMARK INTRA:                  -0.668
REMARK UNBOUND:                -0.197
REMARK  Name = /content/drive/MyDrive/Docking_Pipeline/raw_data/ligand_5291_3D.pdb
REMARK  8 active torsions:
REMARK  status: ('A' for Active; 'I' for Inactive)
REMARK    1  A    between atoms: C1_1  and  C2_2
REMARK    2  A    between atoms: C3_3  and  N4_25
REMARK    3  A    between atoms: C5_5  and  N1_8
REMARK    4  A    between atoms: C8_9  and  C9_11
REMARK    5  A    between atoms: C12_14  and  C15_17
REMARK    6  A    between atoms: C15_17  and  N2_18
REMARK    7  A    between atoms: N3_21  and  C20_24
REMARK    8  A    between atoms: C24_30  and  C25_32
REMARK                            x       y       z     vdW  Elec       q    Type
REMARK                         _______ _______ _______ _____ _____    ______ ____
ROOT
ATOM      1  C1  UNL     1      18.670  17.436   4.372  0.00  0.00    +0.000 C 
ATOM      2  C2  UNL     1      17.567  18.458   4.453  0.00  0.00    +0.000 A 
ATOM      3  C3  UNL     1      17.176  19.042   5.679  0.00  0.00    +0.000 A 
ATOM      4  C4  UNL     1      16.129  19.978   5.651  0.00  0.00    +0.000 A 
ATOM      5  C5  UNL     1      15.495  20.365   4.459  0.00  0.00    +0.000 A 
ATOM      6  C6  UNL     1      15.911  19.797   3.263  0.00  0.00    +0.000 A 
ATOM      7  C7  UNL     1      16.937  18.851   3.259  0.00  0.00    +0.000 A 
ENDROOT
BRANCH   3   8
ATOM      8  N4  UNL     1      17.824  18.675   6.869  0.00  0.00    +0.000 N 
ATOM      9  C21 UNL     1      17.713  19.054   8.203  0.00  0.00    +0.000 A 
ATOM     10  N5  UNL     1      16.805  19.943   8.625  0.00  0.00    +0.000 NA
ATOM     11  C22 UNL     1      16.794  20.240   9.934  0.00  0.00    +0.000 A 
ATOM     12  C23 UNL     1      17.654  19.679  10.846  0.00  0.00    +0.000 A 
ATOM     13  C24 UNL     1      18.558  18.764  10.347  0.00  0.00    +0.000 A 
ATOM     14  N6  UNL     1      18.592  18.460   9.029  0.00  0.00    +0.000 NA
ATOM     15  H25 UNL     1      18.582  18.013   6.794  0.00  0.00    +0.000 HD
BRANCH  13  16
ATOM     16  C25 UNL     1      19.551  18.068  11.188  0.00  0.00    +0.000 A 
ATOM     17  C26 UNL     1      20.131  16.864  10.776  0.00  0.00    +0.000 A 
ATOM     18  N7  UNL     1      21.055  16.156  11.478  0.00  0.00    +0.000 NA
ATOM     19  C27 UNL     1      21.428  16.663  12.669  0.00  0.00    +0.000 A 
ATOM     20  C28 UNL     1      20.925  17.844  13.186  0.00  0.00    +0.000 A 
ATOM     21  C29 UNL     1      19.978  18.546  12.437  0.00  0.00    +0.000 A 
ENDBRANCH  13  16
ENDBRANCH   3   8
BRANCH   5  22
ATOM     22  N1  UNL     1      14.456  21.312   4.562  0.00  0.00    +0.000 N 
ATOM     23  C8  UNL     1      14.573  22.690   4.588  0.00  0.00    +0.000 C 
ATOM     24  O1  UNL     1      15.603  23.352   4.579  0.00  0.00    +0.000 OA
ATOM     25  H7  UNL     1      13.526  20.928   4.688  0.00  0.00    +0.000 HD
BRANCH  23  26
ATOM     26  C9  UNL     1      13.275  23.409   4.677  0.00  0.00    +0.000 A 
ATOM     27  C10 UNL     1      12.080  22.789   4.302  0.00  0.00    +0.000 A 
ATOM     28  C11 UNL     1      10.878  23.497   4.382  0.00  0.00    +0.000 A 
ATOM     29  C12 UNL     1      10.858  24.821   4.846  0.00  0.00    +0.000 A 
ATOM     30  C13 UNL     1      12.067  25.434   5.215  0.00  0.00    +0.000 A 
ATOM     31  C14 UNL     1      13.271  24.735   5.122  0.00  0.00    +0.000 A 
BRANCH  29  32
ATOM     32  C15 UNL     1       9.551  25.587   4.903  0.00  0.00    +0.000 C 
BRANCH  32  33
ATOM     33  N2  UNL     1       9.425  26.397   6.119  0.00  0.00    +0.000 NA
ATOM     34  C16 UNL     1       9.330  25.565   7.341  0.00  0.00    +0.000 C 
ATOM     35  C17 UNL     1       8.617  26.253   8.536  0.00  0.00    +0.000 C 
ATOM     36  N3  UNL     1       8.697  27.724   8.563  0.00  0.00    +0.000 NA
ATOM     37  C18 UNL     1       8.220  28.274   7.272  0.00  0.00    +0.000 C 
ATOM     38  C19 UNL     1       8.283  27.318   6.049  0.00  0.00    +0.000 C 
ATOM     39  C20 UNL     1      10.068  28.161   8.842  0.00  0.00    +0.000 C 
ENDBRANCH  32  33
ENDBRANCH  29  32
ENDBRANCH  23  26
ENDBRANCH   5  22
TORSDOF 6
ENDMDL
MODEL 4
REMARK VINA RESULT:    -8.912      2.729     12.334
REMARK INTER + INTRA:         -12.234
REMARK INTER:                 -11.475
REMARK INTRA:                  -0.760
REMARK UNBOUND:                -0.197
REMARK  Name = /content/drive/MyDrive/Docking_Pipeline/raw_data/ligand_5291_3D.pdb
REMARK  8 active torsions:
REMARK  status: ('A' for Active; 'I' for Inactive)
REMARK    1  A    between atoms: C1_1  and  C2_2
REMARK    2  A    between atoms: C3_3  and  N4_25
REMARK    3  A    between atoms: C5_5  and  N1_8
REMARK    4  A    between atoms: C8_9  and  C9_11
REMARK    5  A    between atoms: C12_14  and  C15_17
REMARK    6  A    between atoms: C15_17  and  N2_18
REMARK    7  A    between atoms: N3_21  and  C20_24
REMARK    8  A    between atoms: C24_30  and  C25_32
REMARK                            x       y       z     vdW  Elec       q    Type
REMARK                         _______ _______ _______ _____ _____    ______ ____
ROOT
ATOM      1  C1  UNL     1      13.083  22.390   3.244  0.00  0.00    +0.000 C 
ATOM      2  C2  UNL     1      13.839  21.799   4.404  0.00  0.00    +0.000 A 
ATOM      3  C3  UNL     1      13.605  22.209   5.737  0.00  0.00    +0.000 A 
ATOM      4  C4  UNL     1      14.370  21.606   6.749  0.00  0.00    +0.000 A 
ATOM      5  C5  UNL     1      15.319  20.606   6.481  0.00  0.00    +0.000 A 
ATOM      6  C6  UNL     1      15.517  20.202   5.168  0.00  0.00    +0.000 A 
ATOM      7  C7  UNL     1      14.784  20.794   4.138  0.00  0.00    +0.000 A 
ENDROOT
BRANCH   3   8
ATOM      8  N4  UNL     1      12.639  23.192   6.009  0.00  0.00    +0.000 N 
ATOM      9  C21 UNL     1      12.489  24.174   6.983  0.00  0.00    +0.000 A 
ATOM     10  N5  UNL     1      13.401  24.385   7.939  0.00  0.00    +0.000 NA
ATOM     11  C22 UNL     1      13.146  25.355   8.831  0.00  0.00    +0.000 A 
ATOM     12  C23 UNL     1      12.014  26.130   8.806  0.00  0.00    +0.000 A 
ATOM     13  C24 UNL     1      11.119  25.867   7.790  0.00  0.00    +0.000 A 
ATOM     14  N6  UNL     1      11.353  24.887   6.887  0.00  0.00    +0.000 NA
ATOM     15  H25 UNL     1      11.824  23.211   5.414  0.00  0.00    +0.000 HD
BRANCH  13  16
ATOM     16  C25 UNL     1       9.853  26.606   7.615  0.00  0.00    +0.000 A 
ATOM     17  C26 UNL     1       9.536  27.220   6.399  0.00  0.00    +0.000 A 
ATOM     18  N7  UNL     1       8.397  27.915   6.144  0.00  0.00    +0.000 NA
ATOM     19  C27 UNL     1       7.512  28.020   7.154  0.00  0.00    +0.000 A 
ATOM     20  C28 UNL     1       7.713  27.459   8.403  0.00  0.00    +0.000 A 
ATOM     21  C29 UNL     1       8.895  26.751   8.630  0.00  0.00    +0.000 A 
ENDBRANCH  13  16
ENDBRANCH   3   8
BRANCH   5  22
ATOM     22  N1  UNL     1      16.025  20.079   7.583  0.00  0.00    +0.000 N 
ATOM     23  C8  UNL     1      16.890  20.751   8.426  0.00  0.00    +0.000 C 
ATOM     24  O1  UNL     1      17.250  21.919   8.352  0.00  0.00    +0.000 OA
ATOM     25  H7  UNL     1      15.923  19.081   7.729  0.00  0.00    +0.000 HD
BRANCH  23  26
ATOM     26  C9  UNL     1      17.454  19.909   9.514  0.00  0.00    +0.000 A 
ATOM     27  C10 UNL     1      16.769  18.785   9.986  0.00  0.00    +0.000 A 
ATOM     28  C11 UNL     1      17.319  18.024  11.020  0.00  0.00    +0.000 A 
ATOM     29  C12 UNL     1      18.557  18.369  11.582  0.00  0.00    +0.000 A 
ATOM     30  C13 UNL     1      19.232  19.503  11.103  0.00  0.00    +0.000 A 
ATOM     31  C14 UNL     1      18.679  20.275  10.081  0.00  0.00    +0.000 A 
BRANCH  29  32
ATOM     32  C15 UNL     1      19.129  17.550  12.723  0.00  0.00    +0.000 C 
BRANCH  32  33
ATOM     33  N2  UNL     1      20.552  17.245  12.538  0.00  0.00    +0.000 NA
ATOM     34  C16 UNL     1      20.801  15.791  12.396  0.00  0.00    +0.000 C 
ATOM     35  C17 UNL     1      22.232  15.339  12.794  0.00  0.00    +0.000 C 
ATOM     36  N3  UNL     1      23.285  16.360  12.644  0.00  0.00    +0.000 NA
ATOM     37  C18 UNL     1      22.895  17.591  13.372  0.00  0.00    +0.000 C 
ATOM     38  C19 UNL     1      21.375  17.791  13.625  0.00  0.00    +0.000 C 
ATOM     39  C20 UNL     1      23.529  16.645  11.227  0.00  0.00    +0.000 C 
ENDBRANCH  32  33
ENDBRANCH  29  32
ENDBRANCH  23  26
ENDBRANCH   5  22
TORSDOF 6
ENDMDL
MODEL 5
REMARK VINA RESULT:    -8.531      3.335     12.674
REMARK INTER + INTRA:         -11.721
REMARK INTER:                 -10.874
REMARK INTRA:                  -0.847
REMARK UNBOUND:                -0.197
REMARK  Name = /content/drive/MyDrive/Docking_Pipeline/raw_data/ligand_5291_3D.pdb
REMARK  8 active torsions:
REMARK  status: ('A' for Active; 'I' for Inactive)
REMARK    1  A    between atoms: C1_1  and  C2_2
REMARK    2  A    between atoms: C3_3  and  N4_25
REMARK    3  A    between atoms: C5_5  and  N1_8
REMARK    4  A    between atoms: C8_9  and  C9_11
REMARK    5  A    between atoms: C12_14  and  C15_17
REMARK    6  A    between atoms: C15_17  and  N2_18
REMARK    7  A    between atoms: N3_21  and  C20_24
REMARK    8  A    between atoms: C24_30  and  C25_32
REMARK                            x       y       z     vdW  Elec       q    Type
REMARK                         _______ _______ _______ _____ _____    ______ ____
ROOT
ATOM      1  C1  UNL     1      12.897  24.713   8.208  0.00  0.00    +0.000 C 
ATOM      2  C2  UNL     1      13.773  23.558   7.801  0.00  0.00    +0.000 A 
ATOM      3  C3  UNL     1      13.422  22.686   6.745  0.00  0.00    +0.000 A 
ATOM      4  C4  UNL     1      14.301  21.632   6.450  0.00  0.00    +0.000 A 
ATOM      5  C5  UNL     1      15.509  21.442   7.140  0.00  0.00    +0.000 A 
ATOM      6  C6  UNL     1      15.847  22.324   8.158  0.00  0.00    +0.000 A 
ATOM      7  C7  UNL     1      14.986  23.372   8.487  0.00  0.00    +0.000 A 
ENDROOT
BRANCH   3   8
ATOM      8  N4  UNL     1      12.226  22.888   6.038  0.00  0.00    +0.000 N 
ATOM      9  C21 UNL     1      11.889  23.513   4.841  0.00  0.00    +0.000 A 
ATOM     10  N5  UNL     1      12.802  24.076   4.041  0.00  0.00    +0.000 NA
ATOM     11  C22 UNL     1      12.361  24.657   2.915  0.00  0.00    +0.000 A 
ATOM     12  C23 UNL     1      11.039  24.697   2.549  0.00  0.00    +0.000 A 
ATOM     13  C24 UNL     1      10.150  24.090   3.413  0.00  0.00    +0.000 A 
ATOM     14  N6  UNL     1      10.574  23.508   4.558  0.00  0.00    +0.000 NA
ATOM     15  H25 UNL     1      11.376  22.557   6.470  0.00  0.00    +0.000 HD
BRANCH  13  16
ATOM     16  C25 UNL     1       8.695  24.039   3.173  0.00  0.00    +0.000 A 
ATOM     17  C26 UNL     1       7.886  23.101   3.822  0.00  0.00    +0.000 A 
ATOM     18  N7  UNL     1       6.541  22.983   3.668  0.00  0.00    +0.000 NA
ATOM     19  C27 UNL     1       5.952  23.841   2.813  0.00  0.00    +0.000 A 
ATOM     20  C28 UNL     1       6.644  24.812   2.111  0.00  0.00    +0.000 A 
ATOM     21  C29 UNL     1       8.025  24.905   2.294  0.00  0.00    +0.000 A 
ENDBRANCH  13  16
ENDBRANCH   3   8
BRANCH   5  22
ATOM     22  N1  UNL     1      16.306  20.345   6.751  0.00  0.00    +0.000 N 
ATOM     23  C8  UNL     1      16.732  20.026   5.475  0.00  0.00    +0.000 C 
ATOM     24  O1  UNL     1      16.459  20.602   4.430  0.00  0.00    +0.000 OA
ATOM     25  H7  UNL     1      16.541  19.693   7.490  0.00  0.00    +0.000 HD
BRANCH  23  26
ATOM     26  C9  UNL     1      17.588  18.812   5.405  0.00  0.00    +0.000 A 
ATOM     27  C10 UNL     1      18.189  18.287   6.553  0.00  0.00    +0.000 A 
ATOM     28  C11 UNL     1      19.001  17.154   6.453  0.00  0.00    +0.000 A 
ATOM     29  C12 UNL     1      19.208  16.532   5.213  0.00  0.00    +0.000 A 
ATOM     30  C13 UNL     1      18.603  17.072   4.067  0.00  0.00    +0.000 A 
ATOM     31  C14 UNL     1      17.804  18.212   4.161  0.00  0.00    +0.000 A 
BRANCH  29  32
ATOM     32  C15 UNL     1      20.113  15.319   5.114  0.00  0.00    +0.000 C 
BRANCH  32  33
ATOM     33  N2  UNL     1      21.453  15.571   5.656  0.00  0.00    +0.000 NA
ATOM     34  C16 UNL     1      22.523  15.212   4.697  0.00  0.00    +0.000 C 
ATOM     35  C17 UNL     1      23.890  14.875   5.351  0.00  0.00    +0.000 C 
ATOM     36  N3  UNL     1      24.151  15.523   6.649  0.00  0.00    +0.000 NA
ATOM     37  C18 UNL     1      23.032  15.243   7.580  0.00  0.00    +0.000 C 
ATOM     38  C19 UNL     1      21.669  14.876   6.931  0.00  0.00    +0.000 C 
ATOM     39  C20 UNL     1      24.338  16.966   6.476  0.00  0.00    +0.000 C 
ENDBRANCH  32  33
ENDBRANCH  29  32
ENDBRANCH  23  26
ENDBRANCH   5  22
TORSDOF 6
ENDMDL
MODEL 6
REMARK VINA RESULT:    -8.398      1.653      2.456
REMARK INTER + INTRA:         -11.541
REMARK INTER:                 -10.977
REMARK INTRA:                  -0.564
REMARK UNBOUND:                -0.197
REMARK  Name = /content/drive/MyDrive/Docking_Pipeline/raw_data/ligand_5291_3D.pdb
REMARK  8 active torsions:
REMARK  status: ('A' for Active; 'I' for Inactive)
REMARK    1  A    between atoms: C1_1  and  C2_2
REMARK    2  A    between atoms: C3_3  and  N4_25
REMARK    3  A    between atoms: C5_5  and  N1_8
REMARK    4  A    between atoms: C8_9  and  C9_11
REMARK    5  A    between atoms: C12_14  and  C15_17
REMARK    6  A    between atoms: C15_17  and  N2_18
REMARK    7  A    between atoms: N3_21  and  C20_24
REMARK    8  A    between atoms: C24_30  and  C25_32
REMARK                            x       y       z     vdW  Elec       q    Type
REMARK                         _______ _______ _______ _____ _____    ______ ____
ROOT
ATOM      1  C1  UNL     1      18.677  17.471   4.306  0.00  0.00    +0.000 C 
ATOM      2  C2  UNL     1      17.567  18.476   4.468  0.00  0.00    +0.000 A 
ATOM      3  C3  UNL     1      17.195  18.983   5.734  0.00  0.00    +0.000 A 
ATOM      4  C4  UNL     1      16.139  19.908   5.782  0.00  0.00    +0.000 A 
ATOM      5  C5  UNL     1      15.478  20.357   4.627  0.00  0.00    +0.000 A 
ATOM      6  C6  UNL     1      15.875  19.864   3.391  0.00  0.00    +0.000 A 
ATOM      7  C7  UNL     1      16.910  18.931   3.312  0.00  0.00    +0.000 A 
ENDROOT
BRANCH   3   8
ATOM      8  N4  UNL     1      17.870  18.553   6.888  0.00  0.00    +0.000 N 
ATOM      9  C21 UNL     1      17.808  18.881   8.239  0.00  0.00    +0.000 A 
ATOM     10  N5  UNL     1      16.935  19.772   8.723  0.00  0.00    +0.000 NA
ATOM     11  C22 UNL     1      16.970  20.016  10.043  0.00  0.00    +0.000 A 
ATOM     12  C23 UNL     1      17.844  19.400  10.905  0.00  0.00    +0.000 A 
ATOM     13  C24 UNL     1      18.711  18.486  10.342  0.00  0.00    +0.000 A 
ATOM     14  N6  UNL     1      18.697  18.234   9.013  0.00  0.00    +0.000 NA
ATOM     15  H25 UNL     1      18.610  17.878   6.763  0.00  0.00    +0.000 HD
BRANCH  13  16
ATOM     16  C25 UNL     1      19.712  17.734  11.124  0.00  0.00    +0.000 A 
ATOM     17  C26 UNL     1      20.168  16.481  10.701  0.00  0.00    +0.000 A 
ATOM     18  N7  UNL     1      21.088  15.720  11.350  0.00  0.00    +0.000 NA
ATOM     19  C27 UNL     1      21.590  16.222  12.494  0.00  0.00    +0.000 A 
ATOM     20  C28 UNL     1      21.217  17.448  13.016  0.00  0.00    +0.000 A 
ATOM     21  C29 UNL     1      20.269  18.204  12.323  0.00  0.00    +0.000 A 
ENDBRANCH  13  16
ENDBRANCH   3   8
BRANCH   5  22
ATOM     22  N1  UNL     1      14.433  21.286   4.805  0.00  0.00    +0.000 N 
ATOM     23  C8  UNL     1      14.540  22.609   5.194  0.00  0.00    +0.000 C 
ATOM     24  O1  UNL     1      15.557  23.215   5.509  0.00  0.00    +0.000 OA
ATOM     25  H7  UNL     1      13.496  20.918   4.687  0.00  0.00    +0.000 HD
BRANCH  23  26
ATOM     26  C9  UNL     1      13.242  23.330   5.262  0.00  0.00    +0.000 A 
ATOM     27  C10 UNL     1      13.195  24.727   5.319  0.00  0.00    +0.000 A 
ATOM     28  C11 UNL     1      11.961  25.375   5.399  0.00  0.00    +0.000 A 
ATOM     29  C12 UNL     1      10.766  24.639   5.411  0.00  0.00    +0.000 A 
ATOM     30  C13 UNL     1      10.828  23.237   5.358  0.00  0.00    +0.000 A 
ATOM     31  C14 UNL     1      12.060  22.585   5.294  0.00  0.00    +0.000 A 
BRANCH  29  32
ATOM     32  C15 UNL     1       9.435  25.354   5.525  0.00  0.00    +0.000 C 
BRANCH  32  33
ATOM     33  N2  UNL     1       8.629  25.242   4.304  0.00  0.00    +0.000 NA
ATOM     34  C16 UNL     1       9.400  25.593   3.088  0.00  0.00    +0.000 C 
ATOM     35  C17 UNL     1       8.535  26.078   1.893  0.00  0.00    +0.000 C 
ATOM     36  N3  UNL     1       7.156  25.560   1.855  0.00  0.00    +0.000 NA
ATOM     37  C18 UNL     1       6.482  25.838   3.146  0.00  0.00    +0.000 C 
ATOM     38  C19 UNL     1       7.408  26.053   4.375  0.00  0.00    +0.000 C 
ATOM     39  C20 UNL     1       7.152  24.123   1.563  0.00  0.00    +0.000 C 
ENDBRANCH  32  33
ENDBRANCH  29  32
ENDBRANCH  23  26
ENDBRANCH   5  22
TORSDOF 6
ENDMDL
MODEL 7
REMARK VINA RESULT:    -8.095      1.496      1.985
REMARK INTER + INTRA:         -11.131
REMARK INTER:                 -11.341
REMARK INTRA:                   0.209
REMARK UNBOUND:                -0.197
REMARK  Name = /content/drive/MyDrive/Docking_Pipeline/raw_data/ligand_5291_3D.pdb
REMARK  8 active torsions:
REMARK  status: ('A' for Active; 'I' for Inactive)
REMARK    1  A    between atoms: C1_1  and  C2_2
REMARK    2  A    between atoms: C3_3  and  N4_25
REMARK    3  A    between atoms: C5_5  and  N1_8
REMARK    4  A    between atoms: C8_9  and  C9_11
REMARK    5  A    between atoms: C12_14  and  C15_17
REMARK    6  A    between atoms: C15_17  and  N2_18
REMARK    7  A    between atoms: N3_21  and  C20_24
REMARK    8  A    between atoms: C24_30  and  C25_32
REMARK                            x       y       z     vdW  Elec       q    Type
REMARK                         _______ _______ _______ _____ _____    ______ ____
ROOT
ATOM      1  C1  UNL     1      17.110  18.568   3.528  0.00  0.00    +0.000 C 
ATOM      2  C2  UNL     1      16.054  19.634   3.646  0.00  0.00    +0.000 A 
ATOM      3  C3  UNL     1      15.719  20.223   4.887  0.00  0.00    +0.000 A 
ATOM      4  C4  UNL     1      14.712  21.202   4.894  0.00  0.00    +0.000 A 
ATOM      5  C5  UNL     1      14.064  21.625   3.722  0.00  0.00    +0.000 A 
ATOM      6  C6  UNL     1      14.423  21.050   2.511  0.00  0.00    +0.000 A 
ATOM      7  C7  UNL     1      15.409  20.062   2.473  0.00  0.00    +0.000 A 
ENDROOT
BRANCH   3   8
ATOM      8  N4  UNL     1      16.384  19.819   6.057  0.00  0.00    +0.000 N 
ATOM      9  C21 UNL     1      16.364  20.230   7.386  0.00  0.00    +0.000 A 
ATOM     10  N5  UNL     1      15.558  21.204   7.826  0.00  0.00    +0.000 NA
ATOM     11  C22 UNL     1      15.631  21.523   9.128  0.00  0.00    +0.000 A 
ATOM     12  C23 UNL     1      16.475  20.903  10.015  0.00  0.00    +0.000 A 
ATOM     13  C24 UNL     1      17.272  19.902   9.498  0.00  0.00    +0.000 A 
ATOM     14  N6  UNL     1      17.221  19.574   8.187  0.00  0.00    +0.000 NA
ATOM     15  H25 UNL     1      17.075  19.091   5.963  0.00  0.00    +0.000 HD
BRANCH  13  16
ATOM     16  C25 UNL     1      18.234  19.134  10.312  0.00  0.00    +0.000 A 
ATOM     17  C26 UNL     1      18.809  17.953   9.829  0.00  0.00    +0.000 A 
ATOM     18  N7  UNL     1      19.705  17.184  10.502  0.00  0.00    +0.000 NA
ATOM     19  C27 UNL     1      20.055  17.600  11.734  0.00  0.00    +0.000 A 
ATOM     20  C28 UNL     1      19.554  18.749  12.321  0.00  0.00    +0.000 A 
ATOM     21  C29 UNL     1      18.636  19.516  11.601  0.00  0.00    +0.000 A 
ENDBRANCH  13  16
ENDBRANCH   3   8
BRANCH   5  22
ATOM     22  N1  UNL     1      13.068  22.614   3.860  0.00  0.00    +0.000 N 
ATOM     23  C8  UNL     1      11.744  22.535   3.467  0.00  0.00    +0.000 C 
ATOM     24  O1  UNL     1      11.193  21.613   2.877  0.00  0.00    +0.000 OA
ATOM     25  H7  UNL     1      13.381  23.499   4.240  0.00  0.00    +0.000 HD
BRANCH  23  26
ATOM     26  C9  UNL     1      10.943  23.747   3.781  0.00  0.00    +0.000 A 
ATOM     27  C10 UNL     1      11.460  24.763   4.591  0.00  0.00    +0.000 A 
ATOM     28  C11 UNL     1      10.676  25.883   4.881  0.00  0.00    +0.000 A 
ATOM     29  C12 UNL     1       9.380  26.003   4.357  0.00  0.00    +0.000 A 
ATOM     30  C13 UNL     1       8.871  24.973   3.549  0.00  0.00    +0.000 A 
ATOM     31  C14 UNL     1       9.645  23.846   3.270  0.00  0.00    +0.000 A 
BRANCH  29  32
ATOM     32  C15 UNL     1       8.531  27.210   4.702  0.00  0.00    +0.000 C 
BRANCH  32  33
ATOM     33  N2  UNL     1       8.482  27.470   6.145  0.00  0.00    +0.000 NA
ATOM     34  C16 UNL     1       8.867  26.283   6.942  0.00  0.00    +0.000 C 
ATOM     35  C17 UNL     1       8.289  26.258   8.383  0.00  0.00    +0.000 C 
ATOM     36  N3  UNL     1       8.009  27.577   8.978  0.00  0.00    +0.000 NA
ATOM     37  C18 UNL     1       7.138  28.360   8.070  0.00  0.00    +0.000 C 
ATOM     38  C19 UNL     1       7.162  27.954   6.570  0.00  0.00    +0.000 C 
ATOM     39  C20 UNL     1       9.257  28.295   9.252  0.00  0.00    +0.000 C 
ENDBRANCH  32  33
ENDBRANCH  29  32
ENDBRANCH  23  26
ENDBRANCH   5  22
TORSDOF 6
ENDMDL
MODEL 8
REMARK VINA RESULT:    -7.459      3.353     12.314
REMARK INTER + INTRA:         -10.272
REMARK INTER:                  -9.604
REMARK INTRA:                  -0.668
REMARK UNBOUND:                -0.197
REMARK  Name = /content/drive/MyDrive/Docking_Pipeline/raw_data/ligand_5291_3D.pdb
REMARK  8 active torsions:
REMARK  status: ('A' for Active; 'I' for Inactive)
REMARK    1  A    between atoms: C1_1  and  C2_2
REMARK    2  A    between atoms: C3_3  and  N4_25
REMARK    3  A    between atoms: C5_5  and  N1_8
REMARK    4  A    between atoms: C8_9  and  C9_11
REMARK    5  A    between atoms: C12_14  and  C15_17
REMARK    6  A    between atoms: C15_17  and  N2_18
REMARK    7  A    between atoms: N3_21  and  C20_24
REMARK    8  A    between atoms: C24_30  and  C25_32
REMARK                            x       y       z     vdW  Elec       q    Type
REMARK                         _______ _______ _______ _____ _____    ______ ____
ROOT
ATOM      1  C1  UNL     1       9.954  27.493   8.118  0.00  0.00    +0.000 C 
ATOM      2  C2  UNL     1      11.057  26.487   8.311  0.00  0.00    +0.000 A 
ATOM      3  C3  UNL     1      11.245  25.402   7.425  0.00  0.00    +0.000 A 
ATOM      4  C4  UNL     1      12.297  24.511   7.697  0.00  0.00    +0.000 A 
ATOM      5  C5  UNL     1      13.168  24.685   8.784  0.00  0.00    +0.000 A 
ATOM      6  C6  UNL     1      12.981  25.771   9.628  0.00  0.00    +0.000 A 
ATOM      7  C7  UNL     1      11.934  26.664   9.395  0.00  0.00    +0.000 A 
ENDROOT
BRANCH   3   8
ATOM      8  N4  UNL     1      10.389  25.240   6.323  0.00  0.00    +0.000 N 
ATOM      9  C21 UNL     1      10.571  24.934   4.978  0.00  0.00    +0.000 A 
ATOM     10  N5  UNL     1      11.775  24.674   4.456  0.00  0.00    +0.000 NA
ATOM     11  C22 UNL     1      11.832  24.398   3.143  0.00  0.00    +0.000 A 
ATOM     12  C23 UNL     1      10.729  24.367   2.327  0.00  0.00    +0.000 A 
ATOM     13  C24 UNL     1       9.517  24.635   2.930  0.00  0.00    +0.000 A 
ATOM     14  N6  UNL     1       9.441  24.925   4.249  0.00  0.00    +0.000 NA
ATOM     15  H25 UNL     1       9.406  25.411   6.476  0.00  0.00    +0.000 HD
BRANCH  13  16
ATOM     16  C25 UNL     1       8.234  24.641   2.200  0.00  0.00    +0.000 A 
ATOM     17  C26 UNL     1       8.004  25.535   1.149  0.00  0.00    +0.000 A 
ATOM     18  N7  UNL     1       6.861  25.610   0.418  0.00  0.00    +0.000 NA
ATOM     19  C27 UNL     1       5.875  24.754   0.747  0.00  0.00    +0.000 A 
ATOM     20  C28 UNL     1       5.981  23.826   1.767  0.00  0.00    +0.000 A 
ATOM     21  C29 UNL     1       7.171  23.775   2.497  0.00  0.00    +0.000 A 
ENDBRANCH  13  16
ENDBRANCH   3   8
BRANCH   5  22
ATOM     22  N1  UNL     1      14.185  23.722   8.952  0.00  0.00    +0.000 N 
ATOM     23  C8  UNL     1      15.065  23.253   7.994  0.00  0.00    +0.000 C 
ATOM     24  O1  UNL     1      15.100  23.542   6.805  0.00  0.00    +0.000 OA
ATOM     25  H7  UNL     1      14.231  23.291   9.868  0.00  0.00    +0.000 HD
BRANCH  23  26
ATOM     26  C9  UNL     1      16.041  22.253   8.503  0.00  0.00    +0.000 A 
ATOM     27  C10 UNL     1      17.416  22.431   8.322  0.00  0.00    +0.000 A 
ATOM     28  C11 UNL     1      18.307  21.465   8.797  0.00  0.00    +0.000 A 
ATOM     29  C12 UNL     1      17.835  20.325   9.465  0.00  0.00    +0.000 A 
ATOM     30  C13 UNL     1      16.452  20.156   9.635  0.00  0.00    +0.000 A 
ATOM     31  C14 UNL     1      15.558  21.110   9.148  0.00  0.00    +0.000 A 
BRANCH  29  32
ATOM     32  C15 UNL     1      18.812  19.272   9.951  0.00  0.00    +0.000 C 
BRANCH  32  33
ATOM     33  N2  UNL     1      18.138  18.076  10.470  0.00  0.00    +0.000 NA
ATOM     34  C16 UNL     1      18.280  17.944  11.938  0.00  0.00    +0.000 C 
ATOM     35  C17 UNL     1      18.149  16.492  12.472  0.00  0.00    +0.000 C 
ATOM     36  N3  UNL     1      17.322  15.587  11.653  0.00  0.00    +0.000 NA
ATOM     37  C18 UNL     1      17.806  15.597  10.253  0.00  0.00    +0.000 C 
ATOM     38  C19 UNL     1      18.607  16.852   9.808  0.00  0.00    +0.000 C 
ATOM     39  C20 UNL     1      15.911  15.976  11.721  0.00  0.00    +0.000 C 
ENDBRANCH  32  33
ENDBRANCH  29  32
ENDBRANCH  23  26
ENDBRANCH   5  22
TORSDOF 6
ENDMDL
MODEL 9
REMARK VINA RESULT:    -6.482      2.361      4.178
REMARK INTER + INTRA:          -8.953
REMARK INTER:                  -8.756
REMARK INTRA:                  -0.197
REMARK UNBOUND:                -0.197
REMARK  Name = /content/drive/MyDrive/Docking_Pipeline/raw_data/ligand_5291_3D.pdb
REMARK  8 active torsions:
REMARK  status: ('A' for Active; 'I' for Inactive)
REMARK    1  A    between atoms: C1_1  and  C2_2
REMARK    2  A    between atoms: C3_3  and  N4_25
REMARK    3  A    between atoms: C5_5  and  N1_8
REMARK    4  A    between atoms: C8_9  and  C9_11
REMARK    5  A    between atoms: C12_14  and  C15_17
REMARK    6  A    between atoms: C15_17  and  N2_18
REMARK    7  A    between atoms: N3_21  and  C20_24
REMARK    8  A    between atoms: C24_30  and  C25_32
REMARK                            x       y       z     vdW  Elec       q    Type
REMARK                         _______ _______ _______ _____ _____    ______ ____
ROOT
ATOM      1  C1  UNL     1      18.444  21.885   9.399  0.00  0.00    +0.000 C 
ATOM      2  C2  UNL     1      17.224  22.108   8.546  0.00  0.00    +0.000 A 
ATOM      3  C3  UNL     1      16.930  21.293   7.429  0.00  0.00    +0.000 A 
ATOM      4  C4  UNL     1      15.773  21.589   6.690  0.00  0.00    +0.000 A 
ATOM      5  C5  UNL     1      14.902  22.632   7.042  0.00  0.00    +0.000 A 
ATOM      6  C6  UNL     1      15.196  23.407   8.156  0.00  0.00    +0.000 A 
ATOM      7  C7  UNL     1      16.347  23.148   8.902  0.00  0.00    +0.000 A 
ENDROOT
BRANCH   3   8
ATOM      8  N4  UNL     1      17.788  20.234   7.090  0.00  0.00    +0.000 N 
ATOM      9  C21 UNL     1      17.673  19.095   6.298  0.00  0.00    +0.000 A 
ATOM     10  N5  UNL     1      16.565  18.810   5.605  0.00  0.00    +0.000 NA
ATOM     11  C22 UNL     1      16.564  17.680   4.880  0.00  0.00    +0.000 A 
ATOM     12  C23 UNL     1      17.632  16.820   4.816  0.00  0.00    +0.000 A 
ATOM     13  C24 UNL     1      18.746  17.177   5.547  0.00  0.00    +0.000 A 
ATOM     14  N6  UNL     1      18.763  18.307   6.291  0.00  0.00    +0.000 NA
ATOM     15  H25 UNL     1      18.700  20.225   7.523  0.00  0.00    +0.000 HD
BRANCH  13  16
ATOM     16  C25 UNL     1      19.980  16.369   5.588  0.00  0.00    +0.000 A 
ATOM     17  C26 UNL     1      20.715  16.228   6.770  0.00  0.00    +0.000 A 
ATOM     18  N7  UNL     1      21.855  15.502   6.904  0.00  0.00    +0.000 NA
ATOM     19  C27 UNL     1      22.308  14.877   5.800  0.00  0.00    +0.000 A 
ATOM     20  C28 UNL     1      21.672  14.942   4.573  0.00  0.00    +0.000 A 
ATOM     21  C29 UNL     1      20.502  15.696   4.471  0.00  0.00    +0.000 A 
ENDBRANCH  13  16
ENDBRANCH   3   8
BRANCH   5  22
ATOM     22  N1  UNL     1      13.773  22.832   6.220  0.00  0.00    +0.000 N 
ATOM     23  C8  UNL     1      13.274  21.976   5.255  0.00  0.00    +0.000 C 
ATOM     24  O1  UNL     1      13.743  20.905   4.891  0.00  0.00    +0.000 OA
ATOM     25  H7  UNL     1      13.317  23.731   6.316  0.00  0.00    +0.000 HD
BRANCH  23  26
ATOM     26  C9  UNL     1      12.047  22.472   4.579  0.00  0.00    +0.000 A 
ATOM     27  C10 UNL     1      12.043  22.758   3.210  0.00  0.00    +0.000 A 
ATOM     28  C11 UNL     1      10.878  23.238   2.606  0.00  0.00    +0.000 A 
ATOM     29  C12 UNL     1       9.708  23.424   3.358  0.00  0.00    +0.000 A 
ATOM     30  C13 UNL     1       9.727  23.138   4.733  0.00  0.00    +0.000 A 
ATOM     31  C14 UNL     1      10.893  22.674   5.342  0.00  0.00    +0.000 A 
BRANCH  29  32
ATOM     32  C15 UNL     1       8.459  23.971   2.696  0.00  0.00    +0.000 C 
BRANCH  32  33
ATOM     33  N2  UNL     1       7.796  24.999   3.506  0.00  0.00    +0.000 NA
ATOM     34  C16 UNL     1       6.413  25.268   3.049  0.00  0.00    +0.000 C 
ATOM     35  C17 UNL     1       5.875  26.678   3.414  0.00  0.00    +0.000 C 
ATOM     36  N3  UNL     1       6.463  27.290   4.619  0.00  0.00    +0.000 NA
ATOM     37  C18 UNL     1       7.941  27.297   4.505  0.00  0.00    +0.000 C 
ATOM     38  C19 UNL     1       8.565  26.249   3.543  0.00  0.00    +0.000 C 
ATOM     39  C20 UNL     1       6.036  26.571   5.823  0.00  0.00    +0.000 C 
ENDBRANCH  32  33
ENDBRANCH  29  32
ENDBRANCH  23  26
ENDBRANCH   5  22
TORSDOF 6
ENDMDL
