MODEL 1
REMARK VINA RESULT:    -9.207      0.000      0.000
REMARK INTER + INTRA:         -14.390
REMARK INTER:                 -13.025
REMARK INTRA:                  -1.365
REMARK UNBOUND:                -0.877
REMARK  Name = /content/drive/MyDrive/Docking_Pipeline/raw_data/ligand_123631_3D.pdb
REMARK  9 active torsions:
REMARK  status: ('A' for Active; 'I' for Inactive)
REMARK    1  A    between atoms: C1_1  and  O1_2
REMARK    2  A    between atoms: O1_2  and  C2_3
REMARK    3  A    between atoms: C3_4  and  O2_22
REMARK    4  A    between atoms: C9_12  and  N3_13
REMARK    5  A    between atoms: N3_13  and  C10_14
REMARK    6  A    between atoms: O2_22  and  C16_23
REMARK    7  A    between atoms: C16_23  and  C17_24
REMARK    8  A    between atoms: C17_24  and  C18_25
REMARK    9  A    between atoms: C18_25  and  N4_26
REMARK                            x       y       z     vdW  Elec       q    Type
REMARK                         _______ _______ _______ _____ _____    ______ ____
ROOT
ATOM      1  C2  UNL     1      14.969  22.380   8.052  0.00  0.00    +0.000 A 
ATOM      2  C3  UNL     1      14.108  23.398   7.619  0.00  0.00    +0.000 A 
ATOM      3  C4  UNL     1      13.713  23.435   6.282  0.00  0.00    +0.000 A 
ATOM      4  C5  UNL     1      14.147  22.448   5.363  0.00  0.00    +0.000 A 
ATOM      5  C6  UNL     1      14.980  21.416   5.811  0.00  0.00    +0.000 A 
ATOM      6  C7  UNL     1      15.381  21.402   7.141  0.00  0.00    +0.000 A 
ATOM      7  N1  UNL     1      15.413  20.441   5.008  0.00  0.00    +0.000 NA
ATOM      8  C8  UNL     1      15.008  20.483   3.735  0.00  0.00    +0.000 A 
ATOM      9  N2  UNL     1      14.224  21.415   3.188  0.00  0.00    +0.000 NA
ATOM     10  C9  UNL     1      13.802  22.403   3.996  0.00  0.00    +0.000 A 
ENDROOT
BRANCH   1  12
ATOM     11  C1  UNL     1      15.217  21.214  10.124  0.00  0.00    +0.000 C 
ATOM     12  O1  UNL     1      15.331  22.418   9.375  0.00  0.00    +0.000 OA
ENDBRANCH   1  12
BRANCH  10  13
ATOM     13  N3  UNL     1      12.992  23.441   3.460  0.00  0.00    +0.000 N 
ATOM     14  H7  UNL     1      13.498  23.887   2.700  0.00  0.00    +0.000 HD
BRANCH  13  15
ATOM     15  C10 UNL     1      11.598  23.436   3.226  0.00  0.00    +0.000 A 
ATOM     16  C11 UNL     1      10.912  24.549   2.715  0.00  0.00    +0.000 A 
ATOM     17  C12 UNL     1       9.545  24.478   2.433  0.00  0.00    +0.000 A 
ATOM     18  C13 UNL     1       8.856  23.285   2.631  0.00  0.00    +0.000 A 
ATOM     19  C14 UNL     1       9.522  22.159   3.100  0.00  0.00    +0.000 A 
ATOM     20  C15 UNL     1      10.888  22.232   3.384  0.00  0.00    +0.000 A 
ATOM     21  F1  UNL     1       7.546  23.193   2.361  0.00  0.00    +0.000 F 
ATOM     22 CL1  UNL     1       8.733  25.867   1.822  0.00  0.00    +0.000 Cl
ENDBRANCH  13  15
ENDBRANCH  10  13
BRANCH   2  23
ATOM     23  O2  UNL     1      13.752  24.347   8.541  0.00  0.00    +0.000 OA
BRANCH  23  24
ATOM     24  C16 UNL     1      12.991  25.463   8.074  0.00  0.00    +0.000 C 
BRANCH  24  25
ATOM     25  C17 UNL     1      11.687  25.566   8.862  0.00  0.00    +0.000 C 
BRANCH  25  26
ATOM     26  C18 UNL     1      10.506  25.038   8.043  0.00  0.00    +0.000 C 
BRANCH  26  27
ATOM     27  N4  UNL     1       9.444  26.041   7.869  0.00  0.00    +0.000 NA
ATOM     28  C19 UNL     1       9.531  27.063   8.939  0.00  0.00    +0.000 C 
ATOM     29  C20 UNL     1       8.469  28.159   8.764  0.00  0.00    +0.000 C 
ATOM     30  O3  UNL     1       8.598  28.804   7.490  0.00  0.00    +0.000 OA
ATOM     31  C21 UNL     1       8.471  27.842   6.437  0.00  0.00    +0.000 C 
ATOM     32  C22 UNL     1       9.530  26.732   6.561  0.00  0.00    +0.000 C 
ENDBRANCH  26  27
ENDBRANCH  25  26
ENDBRANCH  24  25
ENDBRANCH  23  24
ENDBRANCH   2  23
TORSDOF 8
ENDMDL
MODEL 2
REMARK VINA RESULT:    -9.022      2.502      6.774
REMARK INTER + INTRA:         -14.119
REMARK INTER:                 -12.852
REMARK INTRA:                  -1.267
REMARK UNBOUND:                -0.877
REMARK  Name = /content/drive/MyDrive/Docking_Pipeline/raw_data/ligand_123631_3D.pdb
REMARK  9 active torsions:
REMARK  status: ('A' for Active; 'I' for Inactive)
REMARK    1  A    between atoms: C1_1  and  O1_2
REMARK    2  A    between atoms: O1_2  and  C2_3
REMARK    3  A    between atoms: C3_4  and  O2_22
REMARK    4  A    between atoms: C9_12  and  N3_13
REMARK    5  A    between atoms: N3_13  and  C10_14
REMARK    6  A    between atoms: O2_22  and  C16_23
REMARK    7  A    between atoms: C16_23  and  C17_24
REMARK    8  A    between atoms: C17_24  and  C18_25
REMARK    9  A    between atoms: C18_25  and  N4_26
REMARK                            x       y       z     vdW  Elec       q    Type
REMARK                         _______ _______ _______ _____ _____    ______ ____
ROOT
ATOM      1  C2  UNL     1      14.727  23.468   7.807  0.00  0.00    +0.000 A 
ATOM      2  C3  UNL     1      14.506  23.487   6.423  0.00  0.00    +0.000 A 
ATOM      3  C4  UNL     1      13.436  24.222   5.912  0.00  0.00    +0.000 A 
ATOM      4  C5  UNL     1      12.587  24.968   6.767  0.00  0.00    +0.000 A 
ATOM      5  C6  UNL     1      12.834  24.971   8.145  0.00  0.00    +0.000 A 
ATOM      6  C7  UNL     1      13.892  24.218   8.641  0.00  0.00    +0.000 A 
ATOM      7  N1  UNL     1      12.090  25.664   9.008  0.00  0.00    +0.000 NA
ATOM      8  C8  UNL     1      11.081  26.378   8.499  0.00  0.00    +0.000 A 
ATOM      9  N2  UNL     1      10.740  26.451   7.210  0.00  0.00    +0.000 NA
ATOM     10  C9  UNL     1      11.484  25.739   6.345  0.00  0.00    +0.000 A 
ENDROOT
BRANCH   1  12
ATOM     11  C1  UNL     1      15.502  21.624   9.115  0.00  0.00    +0.000 C 
ATOM     12  O1  UNL     1      15.785  22.708   8.238  0.00  0.00    +0.000 OA
ENDBRANCH   1  12
BRANCH  10  13
ATOM     13  N3  UNL     1      11.146  25.752   4.964  0.00  0.00    +0.000 N 
ATOM     14  H7  UNL     1      11.888  26.222   4.453  0.00  0.00    +0.000 HD
BRANCH  13  15
ATOM     15  C10 UNL     1      10.552  24.725   4.194  0.00  0.00    +0.000 A 
ATOM     16  C11 UNL     1       9.198  24.378   4.313  0.00  0.00    +0.000 A 
ATOM     17  C12 UNL     1       8.635  23.404   3.483  0.00  0.00    +0.000 A 
ATOM     18  C13 UNL     1       9.414  22.788   2.508  0.00  0.00    +0.000 A 
ATOM     19  C14 UNL     1      10.748  23.142   2.347  0.00  0.00    +0.000 A 
ATOM     20  C15 UNL     1      11.310  24.115   3.179  0.00  0.00    +0.000 A 
ATOM     21  F1  UNL     1       8.893  21.855   1.697  0.00  0.00    +0.000 F 
ATOM     22 CL1  UNL     1       6.974  22.992   3.666  0.00  0.00    +0.000 Cl
ENDBRANCH  13  15
ENDBRANCH  10  13
BRANCH   2  23
ATOM     23  O2  UNL     1      15.333  22.717   5.648  0.00  0.00    +0.000 OA
BRANCH  23  24
ATOM     24  C16 UNL     1      15.075  22.682   4.243  0.00  0.00    +0.000 C 
BRANCH  24  25
ATOM     25  C17 UNL     1      14.511  21.318   3.854  0.00  0.00    +0.000 C 
BRANCH  25  26
ATOM     26  C18 UNL     1      14.960  20.236   4.840  0.00  0.00    +0.000 C 
BRANCH  26  27
ATOM     27  N4  UNL     1      15.863  19.249   4.226  0.00  0.00    +0.000 NA
ATOM     28  C19 UNL     1      15.841  19.391   2.751  0.00  0.00    +0.000 C 
ATOM     29  C20 UNL     1      16.811  18.411   2.074  0.00  0.00    +0.000 C 
ATOM     30  O3  UNL     1      18.152  18.606   2.542  0.00  0.00    +0.000 OA
ATOM     31  C21 UNL     1      18.207  18.428   3.963  0.00  0.00    +0.000 C 
ATOM     32  C22 UNL     1      17.263  19.404   4.686  0.00  0.00    +0.000 C 
ENDBRANCH  26  27
ENDBRANCH  25  26
ENDBRANCH  24  25
ENDBRANCH  23  24
ENDBRANCH   2  23
TORSDOF 8
ENDMDL
MODEL 3
REMARK VINA RESULT:    -8.969      4.424      9.003
REMARK INTER + INTRA:         -14.041
REMARK INTER:                 -12.710
REMARK INTRA:                  -1.331
REMARK UNBOUND:                -0.877
REMARK  Name = /content/drive/MyDrive/Docking_Pipeline/raw_data/ligand_123631_3D.pdb
REMARK  9 active torsions:
REMARK  status: ('A' for Active; 'I' for Inactive)
REMARK    1  A    between atoms: C1_1  and  O1_2
REMARK    2  A    between atoms: O1_2  and  C2_3
REMARK    3  A    between atoms: C3_4  and  O2_22
REMARK    4  A    between atoms: C9_12  and  N3_13
REMARK    5  A    between atoms: N3_13  and  C10_14
REMARK    6  A    between atoms: O2_22  and  C16_23
REMARK    7  A    between atoms: C16_23  and  C17_24
REMARK    8  A    between atoms: C17_24  and  C18_25
REMARK    9  A    between atoms: C18_25  and  N4_26
REMARK                            x       y       z     vdW  Elec       q    Type
REMARK                         _______ _______ _______ _____ _____    ______ ____
ROOT
ATOM      1  C2  UNL     1      10.951  23.098   4.461  0.00  0.00    +0.000 A 
ATOM      2  C3  UNL     1      12.304  22.734   4.501  0.00  0.00    +0.000 A 
ATOM      3  C4  UNL     1      13.105  23.196   5.545  0.00  0.00    +0.000 A 
ATOM      4  C5  UNL     1      12.566  24.006   6.576  0.00  0.00    +0.000 A 
ATOM      5  C6  UNL     1      11.207  24.338   6.546  0.00  0.00    +0.000 A 
ATOM      6  C7  UNL     1      10.425  23.886   5.490  0.00  0.00    +0.000 A 
ATOM      7  N1  UNL     1      10.627  25.080   7.492  0.00  0.00    +0.000 NA
ATOM      8  C8  UNL     1      11.406  25.498   8.495  0.00  0.00    +0.000 A 
ATOM      9  N2  UNL     1      12.712  25.255   8.631  0.00  0.00    +0.000 NA
ATOM     10  C9  UNL     1      13.295  24.520   7.669  0.00  0.00    +0.000 A 
ENDROOT
BRANCH   1  12
ATOM     11  C1  UNL     1       9.607  23.577   2.543  0.00  0.00    +0.000 C 
ATOM     12  O1  UNL     1      10.230  22.623   3.395  0.00  0.00    +0.000 OA
ENDBRANCH   1  12
BRANCH  10  13
ATOM     13  N3  UNL     1      14.691  24.258   7.745  0.00  0.00    +0.000 N 
ATOM     14  H7  UNL     1      15.171  25.126   7.967  0.00  0.00    +0.000 HD
BRANCH  13  15
ATOM     15  C10 UNL     1      15.346  23.140   8.310  0.00  0.00    +0.000 A 
ATOM     16  C11 UNL     1      16.725  22.919   8.168  0.00  0.00    +0.000 A 
ATOM     17  C12 UNL     1      17.344  21.839   8.802  0.00  0.00    +0.000 A 
ATOM     18  C13 UNL     1      16.596  20.984   9.606  0.00  0.00    +0.000 A 
ATOM     19  C14 UNL     1      15.237  21.204   9.792  0.00  0.00    +0.000 A 
ATOM     20  C15 UNL     1      14.619  22.284   9.156  0.00  0.00    +0.000 A 
ATOM     21  F1  UNL     1      17.171  19.944  10.228  0.00  0.00    +0.000 F 
ATOM     22 CL1  UNL     1      19.035  21.589   8.595  0.00  0.00    +0.000 Cl
ENDBRANCH  13  15
ENDBRANCH  10  13
BRANCH   2  23
ATOM     23  O2  UNL     1      12.779  21.982   3.458  0.00  0.00    +0.000 OA
BRANCH  23  24
ATOM     24  C16 UNL     1      14.196  21.918   3.286  0.00  0.00    +0.000 C 
BRANCH  24  25
ATOM     25  C17 UNL     1      14.610  20.493   2.926  0.00  0.00    +0.000 C 
BRANCH  25  26
ATOM     26  C18 UNL     1      14.927  19.679   4.183  0.00  0.00    +0.000 C 
BRANCH  26  27
ATOM     27  N4  UNL     1      16.046  18.744   3.985  0.00  0.00    +0.000 NA
ATOM     28  C19 UNL     1      16.249  18.496   2.538  0.00  0.00    +0.000 C 
ATOM     29  C20 UNL     1      17.443  17.563   2.286  0.00  0.00    +0.000 C 
ATOM     30  O3  UNL     1      18.648  18.106   2.841  0.00  0.00    +0.000 OA
ATOM     31  C21 UNL     1      18.491  18.312   4.250  0.00  0.00    +0.000 C 
ATOM     32  C22 UNL     1      17.315  19.258   4.550  0.00  0.00    +0.000 C 
ENDBRANCH  26  27
ENDBRANCH  25  26
ENDBRANCH  24  25
ENDBRANCH  23  24
ENDBRANCH   2  23
TORSDOF 8
ENDMDL
MODEL 4
REMARK VINA RESULT:    -8.522      3.797      6.162
REMARK INTER + INTRA:         -13.384
REMARK INTER:                 -12.114
REMARK INTRA:                  -1.270
REMARK UNBOUND:                -0.877
REMARK  Name = /content/drive/MyDrive/Docking_Pipeline/raw_data/ligand_123631_3D.pdb
REMARK  9 active torsions:
REMARK  status: ('A' for Active; 'I' for Inactive)
REMARK    1  A    between atoms: C1_1  and  O1_2
REMARK    2  A    between atoms: O1_2  and  C2_3
REMARK    3  A    between atoms: C3_4  and  O2_22
REMARK    4  A    between atoms: C9_12  and  N3_13
REMARK    5  A    between atoms: N3_13  and  C10_14
REMARK    6  A    between atoms: O2_22  and  C16_23
REMARK    7  A    between atoms: C16_23  and  C17_24
REMARK    8  A    between atoms: C17_24  and  C18_25
REMARK    9  A    between atoms: C18_25  and  N4_26
REMARK                            x       y       z     vdW  Elec       q    Type
REMARK                         _______ _______ _______ _____ _____    ______ ____
ROOT
ATOM      1  C2  UNL     1      12.853  23.810   7.100  0.00  0.00    +0.000 A 
ATOM      2  C3  UNL     1      12.668  22.531   6.558  0.00  0.00    +0.000 A 
ATOM      3  C4  UNL     1      13.698  21.595   6.647  0.00  0.00    +0.000 A 
ATOM      4  C5  UNL     1      14.917  21.909   7.297  0.00  0.00    +0.000 A 
ATOM      5  C6  UNL     1      15.083  23.178   7.864  0.00  0.00    +0.000 A 
ATOM      6  C7  UNL     1      14.055  24.107   7.752  0.00  0.00    +0.000 A 
ATOM      7  N1  UNL     1      16.195  23.539   8.508  0.00  0.00    +0.000 NA
ATOM      8  C8  UNL     1      17.164  22.622   8.600  0.00  0.00    +0.000 A 
ATOM      9  N2  UNL     1      17.130  21.386   8.096  0.00  0.00    +0.000 NA
ATOM     10  C9  UNL     1      16.013  21.032   7.435  0.00  0.00    +0.000 A 
ENDROOT
BRANCH   1  12
ATOM     11  C1  UNL     1      11.928  25.705   5.976  0.00  0.00    +0.000 C 
ATOM     12  O1  UNL     1      11.805  24.683   6.958  0.00  0.00    +0.000 OA
ENDBRANCH   1  12
BRANCH  10  13
ATOM     13  N3  UNL     1      15.934  19.739   6.848  0.00  0.00    +0.000 N 
ATOM     14  H7  UNL     1      15.046  19.320   7.107  0.00  0.00    +0.000 HD
BRANCH  13  15
ATOM     15  C10 UNL     1      16.347  19.333   5.559  0.00  0.00    +0.000 A 
ATOM     16  C11 UNL     1      15.563  19.538   4.413  0.00  0.00    +0.000 A 
ATOM     17  C12 UNL     1      16.040  19.185   3.148  0.00  0.00    +0.000 A 
ATOM     18  C13 UNL     1      17.316  18.648   3.012  0.00  0.00    +0.000 A 
ATOM     19  C14 UNL     1      18.126  18.471   4.127  0.00  0.00    +0.000 A 
ATOM     20  C15 UNL     1      17.647  18.823   5.392  0.00  0.00    +0.000 A 
ATOM     21  F1  UNL     1      17.796  18.308   1.807  0.00  0.00    +0.000 F 
ATOM     22 CL1  UNL     1      15.044  19.437   1.766  0.00  0.00    +0.000 Cl
ENDBRANCH  13  15
ENDBRANCH  10  13
BRANCH   2  23
ATOM     23  O2  UNL     1      11.485  22.295   5.907  0.00  0.00    +0.000 OA
BRANCH  23  24
ATOM     24  C16 UNL     1      11.551  21.993   4.512  0.00  0.00    +0.000 C 
BRANCH  24  25
ATOM     25  C17 UNL     1      10.830  23.076   3.713  0.00  0.00    +0.000 C 
BRANCH  25  26
ATOM     26  C18 UNL     1       9.464  23.395   4.327  0.00  0.00    +0.000 C 
BRANCH  26  27
ATOM     27  N4  UNL     1       8.796  24.527   3.666  0.00  0.00    +0.000 NA
ATOM     28  C19 UNL     1       9.584  24.964   2.489  0.00  0.00    +0.000 C 
ATOM     29  C20 UNL     1       8.893  26.113   1.740  0.00  0.00    +0.000 C 
ATOM     30  O3  UNL     1       7.581  25.731   1.307  0.00  0.00    +0.000 OA
ATOM     31  C21 UNL     1       6.784  25.347   2.434  0.00  0.00    +0.000 C 
ATOM     32  C22 UNL     1       7.430  24.184   3.207  0.00  0.00    +0.000 C 
ENDBRANCH  26  27
ENDBRANCH  25  26
ENDBRANCH  24  25
ENDBRANCH  23  24
ENDBRANCH   2  23
TORSDOF 8
ENDMDL
MODEL 5
REMARK VINA RESULT:    -8.388      3.252      7.239
REMARK INTER + INTRA:         -13.188
REMARK INTER:                 -12.098
REMARK INTRA:                  -1.090
REMARK UNBOUND:                -0.877
REMARK  Name = /content/drive/MyDrive/Docking_Pipeline/raw_data/ligand_123631_3D.pdb
REMARK  9 active torsions:
REMARK  status: ('A' for Active; 'I' for Inactive)
REMARK    1  A    between atoms: C1_1  and  O1_2
REMARK    2  A    between atoms: O1_2  and  C2_3
REMARK    3  A    between atoms: C3_4  and  O2_22
REMARK    4  A    between atoms: C9_12  and  N3_13
REMARK    5  A    between atoms: N3_13  and  C10_14
REMARK    6  A    between atoms: O2_22  and  C16_23
REMARK    7  A    between atoms: C16_23  and  C17_24
REMARK    8  A    between atoms: C17_24  and  C18_25
REMARK    9  A    between atoms: C18_25  and  N4_26
REMARK                            x       y       z     vdW  Elec       q    Type
REMARK                         _______ _______ _______ _____ _____    ______ ____
ROOT
ATOM      1  C2  UNL     1      12.846  22.518   4.343  0.00  0.00    +0.000 A 
ATOM      2  C3  UNL     1      12.968  23.681   5.116  0.00  0.00    +0.000 A 
ATOM      3  C4  UNL     1      11.953  24.636   5.078  0.00  0.00    +0.000 A 
ATOM      4  C5  UNL     1      10.791  24.438   4.291  0.00  0.00    +0.000 A 
ATOM      5  C6  UNL     1      10.662  23.260   3.547  0.00  0.00    +0.000 A 
ATOM      6  C7  UNL     1      11.690  22.325   3.579  0.00  0.00    +0.000 A 
ATOM      7  N1  UNL     1       9.589  22.995   2.798  0.00  0.00    +0.000 NA
ATOM      8  C8  UNL     1       8.617  23.914   2.789  0.00  0.00    +0.000 A 
ATOM      9  N2  UNL     1       8.626  25.076   3.447  0.00  0.00    +0.000 NA
ATOM     10  C9  UNL     1       9.715  25.345   4.188  0.00  0.00    +0.000 A 
ENDROOT
BRANCH   1  12
ATOM     11  C1  UNL     1      14.549  21.291   3.201  0.00  0.00    +0.000 C 
ATOM     12  O1  UNL     1      13.891  21.633   4.415  0.00  0.00    +0.000 OA
ENDBRANCH   1  12
BRANCH  10  13
ATOM     13  N3  UNL     1       9.794  26.583   4.883  0.00  0.00    +0.000 N 
ATOM     14  H7  UNL     1       9.600  27.335   4.228  0.00  0.00    +0.000 HD
BRANCH  13  15
ATOM     15  C10 UNL     1       9.333  26.892   6.183  0.00  0.00    +0.000 A 
ATOM     16  C11 UNL     1       9.794  26.223   7.328  0.00  0.00    +0.000 A 
ATOM     17  C12 UNL     1       9.364  26.608   8.601  0.00  0.00    +0.000 A 
ATOM     18  C13 UNL     1       8.491  27.682   8.744  0.00  0.00    +0.000 A 
ATOM     19  C14 UNL     1       8.051  28.384   7.628  0.00  0.00    +0.000 A 
ATOM     20  C15 UNL     1       8.481  27.997   6.356  0.00  0.00    +0.000 A 
ATOM     21  F1  UNL     1       8.071  28.072   9.957  0.00  0.00    +0.000 F 
ATOM     22 CL1  UNL     1       9.937  25.756   9.983  0.00  0.00    +0.000 Cl
ENDBRANCH  13  15
ENDBRANCH  10  13
BRANCH   2  23
ATOM     23  O2  UNL     1      14.129  23.838   5.827  0.00  0.00    +0.000 OA
BRANCH  23  24
ATOM     24  C16 UNL     1      14.034  23.820   7.253  0.00  0.00    +0.000 C 
BRANCH  24  25
ATOM     25  C17 UNL     1      15.263  23.135   7.844  0.00  0.00    +0.000 C 
BRANCH  25  26
ATOM     26  C18 UNL     1      15.116  21.611   7.807  0.00  0.00    +0.000 C 
BRANCH  26  27
ATOM     27  N4  UNL     1      16.384  20.912   8.069  0.00  0.00    +0.000 NA
ATOM     28  C19 UNL     1      16.877  20.274   6.826  0.00  0.00    +0.000 C 
ATOM     29  C20 UNL     1      18.228  19.575   7.046  0.00  0.00    +0.000 C 
ATOM     30  O3  UNL     1      19.216  20.499   7.521  0.00  0.00    +0.000 OA
ATOM     31  C21 UNL     1      18.780  21.096   8.748  0.00  0.00    +0.000 C 
ATOM     32  C22 UNL     1      17.437  21.825   8.571  0.00  0.00    +0.000 C 
ENDBRANCH  26  27
ENDBRANCH  25  26
ENDBRANCH  24  25
ENDBRANCH  23  24
ENDBRANCH   2  23
TORSDOF 8
ENDMDL
MODEL 6
REMARK VINA RESULT:    -8.036      3.387      7.503
REMARK INTER + INTRA:         -12.671
REMARK INTER:                 -11.451
REMARK INTRA:                  -1.220
REMARK UNBOUND:                -0.877
REMARK  Name = /content/drive/MyDrive/Docking_Pipeline/raw_data/ligand_123631_3D.pdb
REMARK  9 active torsions:
REMARK  status: ('A' for Active; 'I' for Inactive)
REMARK    1  A    between atoms: C1_1  and  O1_2
REMARK    2  A    between atoms: O1_2  and  C2_3
REMARK    3  A    between atoms: C3_4  and  O2_22
REMARK    4  A    between atoms: C9_12  and  N3_13
REMARK    5  A    between atoms: N3_13  and  C10_14
REMARK    6  A    between atoms: O2_22  and  C16_23
REMARK    7  A    between atoms: C16_23  and  C17_24
REMARK    8  A    between atoms: C17_24  and  C18_25
REMARK    9  A    between atoms: C18_25  and  N4_26
REMARK                            x       y       z     vdW  Elec       q    Type
REMARK                         _______ _______ _______ _____ _____    ______ ____
ROOT
ATOM      1  C2  UNL     1      15.642  20.928   5.910  0.00  0.00    +0.000 A 
ATOM      2  C3  UNL     1      15.649  22.016   6.793  0.00  0.00    +0.000 A 
ATOM      3  C4  UNL     1      14.808  23.101   6.547  0.00  0.00    +0.000 A 
ATOM      4  C5  UNL     1      13.931  23.108   5.433  0.00  0.00    +0.000 A 
ATOM      5  C6  UNL     1      13.908  22.004   4.573  0.00  0.00    +0.000 A 
ATOM      6  C7  UNL     1      14.765  20.938   4.821  0.00  0.00    +0.000 A 
ATOM      7  N1  UNL     1      13.096  21.932   3.516  0.00  0.00    +0.000 NA
ATOM      8  C8  UNL     1      12.283  22.973   3.307  0.00  0.00    +0.000 A 
ATOM      9  N2  UNL     1      12.218  24.083   4.047  0.00  0.00    +0.000 NA
ATOM     10  C9  UNL     1      13.048  24.157   5.102  0.00  0.00    +0.000 A 
ENDROOT
BRANCH   1  12
ATOM     11  C1  UNL     1      17.558  19.645   5.279  0.00  0.00    +0.000 C 
ATOM     12  O1  UNL     1      16.509  19.906   6.204  0.00  0.00    +0.000 OA
ENDBRANCH   1  12
BRANCH  10  13
ATOM     13  N3  UNL     1      13.046  25.330   5.906  0.00  0.00    +0.000 N 
ATOM     14  H7  UNL     1      13.300  26.123   5.323  0.00  0.00    +0.000 HD
BRANCH  13  15
ATOM     15  C10 UNL     1      12.132  25.699   6.920  0.00  0.00    +0.000 A 
ATOM     16  C11 UNL     1      10.786  25.998   6.654  0.00  0.00    +0.000 A 
ATOM     17  C12 UNL     1       9.900  26.290   7.694  0.00  0.00    +0.000 A 
ATOM     18  C13 UNL     1      10.343  26.259   9.013  0.00  0.00    +0.000 A 
ATOM     19  C14 UNL     1      11.662  25.929   9.304  0.00  0.00    +0.000 A 
ATOM     20  C15 UNL     1      12.547  25.639   8.262  0.00  0.00    +0.000 A 
ATOM     21  F1  UNL     1       9.509  26.530  10.027  0.00  0.00    +0.000 F 
ATOM     22 CL1  UNL     1       8.260  26.666   7.330  0.00  0.00    +0.000 Cl
ENDBRANCH  13  15
ENDBRANCH  10  13
BRANCH   2  23
ATOM     23  O2  UNL     1      16.544  21.972   7.830  0.00  0.00    +0.000 OA
BRANCH  23  24
ATOM     24  C16 UNL     1      16.011  21.900   9.154  0.00  0.00    +0.000 C 
BRANCH  24  25
ATOM     25  C17 UNL     1      16.144  20.476   9.689  0.00  0.00    +0.000 C 
BRANCH  25  26
ATOM     26  C18 UNL     1      17.611  20.041   9.736  0.00  0.00    +0.000 C 
BRANCH  26  27
ATOM     27  N4  UNL     1      17.802  18.771  10.454  0.00  0.00    +0.000 NA
ATOM     28  C19 UNL     1      16.489  18.146  10.738  0.00  0.00    +0.000 C 
ATOM     29  C20 UNL     1      16.647  16.790  11.443  0.00  0.00    +0.000 C 
ATOM     30  O3  UNL     1      17.433  15.887  10.655  0.00  0.00    +0.000 OA
ATOM     31  C21 UNL     1      18.727  16.451  10.406  0.00  0.00    +0.000 C 
ATOM     32  C22 UNL     1      18.618  17.805   9.682  0.00  0.00    +0.000 C 
ENDBRANCH  26  27
ENDBRANCH  25  26
ENDBRANCH  24  25
ENDBRANCH  23  24
ENDBRANCH   2  23
TORSDOF 8
ENDMDL
MODEL 7
REMARK VINA RESULT:    -7.984      1.431      2.119
REMARK INTER + INTRA:         -12.595
REMARK INTER:                 -11.551
REMARK INTRA:                  -1.044
REMARK UNBOUND:                -0.877
REMARK  Name = /content/drive/MyDrive/Docking_Pipeline/raw_data/ligand_123631_3D.pdb
REMARK  9 active torsions:
REMARK  status: ('A' for Active; 'I' for Inactive)
REMARK    1  A    between atoms: C1_1  and  O1_2
REMARK    2  A    between atoms: O1_2  and  C2_3
REMARK    3  A    between atoms: C3_4  and  O2_22
REMARK    4  A    between atoms: C9_12  and  N3_13
REMARK    5  A    between atoms: N3_13  and  C10_14
REMARK    6  A    between atoms: O2_22  and  C16_23
REMARK    7  A    between atoms: C16_23  and  C17_24
REMARK    8  A    between atoms: C17_24  and  C18_25
REMARK    9  A    between atoms: C18_25  and  N4_26
REMARK                            x       y       z     vdW  Elec       q    Type
REMARK                         _______ _______ _______ _____ _____    ______ ____
ROOT
ATOM      1  C2  UNL     1      16.087  20.466   6.928  0.00  0.00    +0.000 A 
ATOM      2  C3  UNL     1      15.330  21.646   6.928  0.00  0.00    +0.000 A 
ATOM      3  C4  UNL     1      14.695  22.050   5.753  0.00  0.00    +0.000 A 
ATOM      4  C5  UNL     1      14.785  21.276   4.570  0.00  0.00    +0.000 A 
ATOM      5  C6  UNL     1      15.517  20.083   4.586  0.00  0.00    +0.000 A 
ATOM      6  C7  UNL     1      16.159  19.702   5.759  0.00  0.00    +0.000 A 
ATOM      7  N1  UNL     1      15.629  19.292   3.517  0.00  0.00    +0.000 NA
ATOM      8  C8  UNL     1      14.999  19.687   2.406  0.00  0.00    +0.000 A 
ATOM      9  N2  UNL     1      14.280  20.803   2.262  0.00  0.00    +0.000 NA
ATOM     10  C9  UNL     1      14.181  21.602   3.338  0.00  0.00    +0.000 A 
ENDROOT
BRANCH   1  12
ATOM     11  C1  UNL     1      18.032  20.597   8.311  0.00  0.00    +0.000 C 
ATOM     12  O1  UNL     1      16.699  20.142   8.112  0.00  0.00    +0.000 OA
ENDBRANCH   1  12
BRANCH  10  13
ATOM     13  N3  UNL     1      13.455  22.821   3.233  0.00  0.00    +0.000 N 
ATOM     14  H7  UNL     1      13.929  23.424   2.566  0.00  0.00    +0.000 HD
BRANCH  13  15
ATOM     15  C10 UNL     1      12.054  23.010   3.204  0.00  0.00    +0.000 A 
ATOM     16  C11 UNL     1      11.455  24.141   2.627  0.00  0.00    +0.000 A 
ATOM     17  C12 UNL     1      10.064  24.254   2.557  0.00  0.00    +0.000 A 
ATOM     18  C13 UNL     1       9.258  23.226   3.038  0.00  0.00    +0.000 A 
ATOM     19  C14 UNL     1       9.829  22.080   3.578  0.00  0.00    +0.000 A 
ATOM     20  C15 UNL     1      11.220  21.969   3.649  0.00  0.00    +0.000 A 
ATOM     21  F1  UNL     1       7.921  23.311   2.975  0.00  0.00    +0.000 F 
ATOM     22 CL1  UNL     1       9.362  25.662   1.857  0.00  0.00    +0.000 Cl
ENDBRANCH  13  15
ENDBRANCH  10  13
BRANCH   2  23
ATOM     23  O2  UNL     1      15.310  22.374   8.088  0.00  0.00    +0.000 OA
BRANCH  23  24
ATOM     24  C16 UNL     1      15.088  23.781   7.977  0.00  0.00    +0.000 C 
BRANCH  24  25
ATOM     25  C17 UNL     1      13.603  24.086   8.155  0.00  0.00    +0.000 C 
BRANCH  25  26
ATOM     26  C18 UNL     1      13.002  24.662   6.869  0.00  0.00    +0.000 C 
BRANCH  26  27
ATOM     27  N4  UNL     1      11.994  25.701   7.131  0.00  0.00    +0.000 NA
ATOM     28  C19 UNL     1      10.803  25.478   6.277  0.00  0.00    +0.000 C 
ATOM     29  C20 UNL     1       9.704  26.514   6.557  0.00  0.00    +0.000 C 
ATOM     30  O3  UNL     1       9.304  26.484   7.933  0.00  0.00    +0.000 OA
ATOM     31  C21 UNL     1      10.432  26.743   8.778  0.00  0.00    +0.000 C 
ATOM     32  C22 UNL     1      11.554  25.716   8.545  0.00  0.00    +0.000 C 
ENDBRANCH  26  27
ENDBRANCH  25  26
ENDBRANCH  24  25
ENDBRANCH  23  24
ENDBRANCH   2  23
TORSDOF 8
ENDMDL
MODEL 8
REMARK VINA RESULT:    -7.808      4.727      7.834
REMARK INTER + INTRA:         -12.337
REMARK INTER:                 -11.460
REMARK INTRA:                  -0.877
REMARK UNBOUND:                -0.877
REMARK  Name = /content/drive/MyDrive/Docking_Pipeline/raw_data/ligand_123631_3D.pdb
REMARK  9 active torsions:
REMARK  status: ('A' for Active; 'I' for Inactive)
REMARK    1  A    between atoms: C1_1  and  O1_2
REMARK    2  A    between atoms: O1_2  and  C2_3
REMARK    3  A    between atoms: C3_4  and  O2_22
REMARK    4  A    between atoms: C9_12  and  N3_13
REMARK    5  A    between atoms: N3_13  and  C10_14
REMARK    6  A    between atoms: O2_22  and  C16_23
REMARK    7  A    between atoms: C16_23  and  C17_24
REMARK    8  A    between atoms: C17_24  and  C18_25
REMARK    9  A    between atoms: C18_25  and  N4_26
REMARK                            x       y       z     vdW  Elec       q    Type
REMARK                         _______ _______ _______ _____ _____    ______ ____
ROOT
ATOM      1  C2  UNL     1      18.227  18.631   9.150  0.00  0.00    +0.000 A 
ATOM      2  C3  UNL     1      18.389  19.053   7.823  0.00  0.00    +0.000 A 
ATOM      3  C4  UNL     1      17.617  20.111   7.343  0.00  0.00    +0.000 A 
ATOM      4  C5  UNL     1      16.692  20.781   8.183  0.00  0.00    +0.000 A 
ATOM      5  C6  UNL     1      16.559  20.375   9.515  0.00  0.00    +0.000 A 
ATOM      6  C7  UNL     1      17.321  19.307   9.974  0.00  0.00    +0.000 A 
ATOM      7  N1  UNL     1      15.724  20.970  10.369  0.00  0.00    +0.000 NA
ATOM      8  C8  UNL     1      15.006  21.995   9.897  0.00  0.00    +0.000 A 
ATOM      9  N2  UNL     1      15.037  22.469   8.649  0.00  0.00    +0.000 NA
ATOM     10  C9  UNL     1      15.870  21.857   7.789  0.00  0.00    +0.000 A 
ENDROOT
BRANCH   1  12
ATOM     11  C1  UNL     1      19.387  17.512  10.915  0.00  0.00    +0.000 C 
ATOM     12  O1  UNL     1      19.004  17.573   9.546  0.00  0.00    +0.000 OA
ENDBRANCH   1  12
BRANCH  10  13
ATOM     13  N3  UNL     1      15.920  22.298   6.438  0.00  0.00    +0.000 N 
ATOM     14  H7  UNL     1      16.729  21.879   5.990  0.00  0.00    +0.000 HD
BRANCH  13  15
ATOM     15  C10 UNL     1      14.850  22.468   5.529  0.00  0.00    +0.000 A 
ATOM     16  C11 UNL     1      13.958  23.549   5.603  0.00  0.00    +0.000 A 
ATOM     17  C12 UNL     1      12.958  23.717   4.642  0.00  0.00    +0.000 A 
ATOM     18  C13 UNL     1      12.856  22.821   3.582  0.00  0.00    +0.000 A 
ATOM     19  C14 UNL     1      13.751  21.765   3.466  0.00  0.00    +0.000 A 
ATOM     20  C15 UNL     1      14.750  21.597   4.429  0.00  0.00    +0.000 A 
ATOM     21  F1  UNL     1      11.907  22.967   2.646  0.00  0.00    +0.000 F 
ATOM     22 CL1  UNL     1      11.872  25.047   4.773  0.00  0.00    +0.000 Cl
ENDBRANCH  13  15
ENDBRANCH  10  13
BRANCH   2  23
ATOM     23  O2  UNL     1      19.268  18.345   7.047  0.00  0.00    +0.000 OA
BRANCH  23  24
ATOM     24  C16 UNL     1      19.016  16.948   6.875  0.00  0.00    +0.000 C 
BRANCH  24  25
ATOM     25  C17 UNL     1      18.606  16.671   5.431  0.00  0.00    +0.000 C 
BRANCH  25  26
ATOM     26  C18 UNL     1      18.704  17.938   4.578  0.00  0.00    +0.000 C 
BRANCH  26  27
ATOM     27  N4  UNL     1      17.393  18.398   4.093  0.00  0.00    +0.000 NA
ATOM     28  C19 UNL     1      17.408  18.508   2.615  0.00  0.00    +0.000 C 
ATOM     29  C20 UNL     1      16.040  18.937   2.065  0.00  0.00    +0.000 C 
ATOM     30  O3  UNL     1      15.014  18.014   2.455  0.00  0.00    +0.000 OA
ATOM     31  C21 UNL     1      14.949  17.926   3.883  0.00  0.00    +0.000 C 
ATOM     32  C22 UNL     1      16.296  17.480   4.479  0.00  0.00    +0.000 C 
ENDBRANCH  26  27
ENDBRANCH  25  26
ENDBRANCH  24  25
ENDBRANCH  23  24
ENDBRANCH   2  23
TORSDOF 8
ENDMDL
MODEL 9
REMARK VINA RESULT:    -7.805      2.994      7.379
REMARK INTER + INTRA:         -12.332
REMARK INTER:                 -11.190
REMARK INTRA:                  -1.143
REMARK UNBOUND:                -0.877
REMARK  Name = /content/drive/MyDrive/Docking_Pipeline/raw_data/ligand_123631_3D.pdb
REMARK  9 active torsions:
REMARK  status: ('A' for Active; 'I' for Inactive)
REMARK    1  A    between atoms: C1_1  and  O1_2
REMARK    2  A    between atoms: O1_2  and  C2_3
REMARK    3  A    between atoms: C3_4  and  O2_22
REMARK    4  A    between atoms: C9_12  and  N3_13
REMARK    5  A    between atoms: N3_13  and  C10_14
REMARK    6  A    between atoms: O2_22  and  C16_23
REMARK    7  A    between atoms: C16_23  and  C17_24
REMARK    8  A    between atoms: C17_24  and  C18_25
REMARK    9  A    between atoms: C18_25  and  N4_26
REMARK                            x       y       z     vdW  Elec       q    Type
REMARK                         _______ _______ _______ _____ _____    ______ ____
ROOT
ATOM      1  C2  UNL     1      15.514  21.994   7.303  0.00  0.00    +0.000 A 
ATOM      2  C3  UNL     1      15.277  22.020   5.922  0.00  0.00    +0.000 A 
ATOM      3  C4  UNL     1      14.358  22.933   5.404  0.00  0.00    +0.000 A 
ATOM      4  C5  UNL     1      13.681  23.848   6.248  0.00  0.00    +0.000 A 
ATOM      5  C6  UNL     1      13.947  23.837   7.622  0.00  0.00    +0.000 A 
ATOM      6  C7  UNL     1      14.851  22.910   8.127  0.00  0.00    +0.000 A 
ATOM      7  N1  UNL     1      13.364  24.682   8.475  0.00  0.00    +0.000 NA
ATOM      8  C8  UNL     1      12.500  25.562   7.958  0.00  0.00    +0.000 A 
ATOM      9  N2  UNL     1      12.157  25.666   6.672  0.00  0.00    +0.000 NA
ATOM     10  C9  UNL     1      12.738  24.804   5.818  0.00  0.00    +0.000 A 
ENDROOT
BRANCH   1  12
ATOM     11  C1  UNL     1      17.243  21.407   8.846  0.00  0.00    +0.000 C 
ATOM     12  O1  UNL     1      16.415  21.057   7.743  0.00  0.00    +0.000 OA
ENDBRANCH   1  12
BRANCH  10  13
ATOM     13  N3  UNL     1      12.385  24.847   4.441  0.00  0.00    +0.000 N 
ATOM     14  H7  UNL     1      13.226  24.711   3.887  0.00  0.00    +0.000 HD
BRANCH  13  15
ATOM     15  C10 UNL     1      11.247  24.296   3.808  0.00  0.00    +0.000 A 
ATOM     16  C11 UNL     1      10.282  25.086   3.164  0.00  0.00    +0.000 A 
ATOM     17  C12 UNL     1       9.210  24.495   2.490  0.00  0.00    +0.000 A 
ATOM     18  C13 UNL     1       9.107  23.109   2.429  0.00  0.00    +0.000 A 
ATOM     19  C14 UNL     1      10.071  22.305   3.026  0.00  0.00    +0.000 A 
ATOM     20  C15 UNL     1      11.142  22.898   3.701  0.00  0.00    +0.000 A 
ATOM     21  F1  UNL     1       8.089  22.521   1.782  0.00  0.00    +0.000 F 
ATOM     22 CL1  UNL     1       8.036  25.495   1.724  0.00  0.00    +0.000 Cl
ENDBRANCH  13  15
ENDBRANCH  10  13
BRANCH   2  23
ATOM     23  O2  UNL     1      15.929  21.087   5.159  0.00  0.00    +0.000 OA
BRANCH  23  24
ATOM     24  C16 UNL     1      15.226  19.883   4.850  0.00  0.00    +0.000 C 
BRANCH  24  25
ATOM     25  C17 UNL     1      16.173  18.887   4.184  0.00  0.00    +0.000 C 
BRANCH  25  26
ATOM     26  C18 UNL     1      17.631  19.324   4.344  0.00  0.00    +0.000 C 
BRANCH  26  27
ATOM     27  N4  UNL     1      18.478  18.269   4.924  0.00  0.00    +0.000 NA
ATOM     28  C19 UNL     1      18.285  18.214   6.392  0.00  0.00    +0.000 C 
ATOM     29  C20 UNL     1      19.115  17.089   7.030  0.00  0.00    +0.000 C 
ATOM     30  O3  UNL     1      18.778  15.815   6.466  0.00  0.00    +0.000 OA
ATOM     31  C21 UNL     1      19.000  15.830   5.051  0.00  0.00    +0.000 C 
ATOM     32  C22 UNL     1      18.173  16.931   4.365  0.00  0.00    +0.000 C 
ENDBRANCH  26  27
ENDBRANCH  25  26
ENDBRANCH  24  25
ENDBRANCH  23  24
ENDBRANCH   2  23
TORSDOF 8
ENDMDL
