MODEL 1
REMARK VINA RESULT:    -5.913      0.000      0.000
REMARK INTER + INTRA:          -7.548
REMARK INTER:                  -6.931
REMARK INTRA:                  -0.616
REMARK UNBOUND:                -0.425
REMARK  Name = /content/drive/MyDrive/Docking_Pipeline/raw_data/ligand_2244_3D.pdb
REMARK  5 active torsions:
REMARK  status: ('A' for Active; 'I' for Inactive)
REMARK    1  A    between atoms: C1_1  and  C2_2
REMARK    2  A    between atoms: C2_2  and  O2_4
REMARK    3  A    between atoms: O2_4  and  C3_5
REMARK    4  A    between atoms: C8_10  and  C9_11
REMARK    5  A    between atoms: C9_11  and  O4_13
REMARK                            x       y       z     vdW  Elec       q    Type
REMARK                         _______ _______ _______ _____ _____    ______ ____
ROOT
ATOM      1  C3  UNL     1      15.913  19.360   3.798  0.00  0.00    +0.000 A 
ATOM      2  C4  UNL     1      15.017  19.670   2.768  0.00  0.00    +0.000 A 
ATOM      3  C5  UNL     1      14.413  20.925   2.736  0.00  0.00    +0.000 A 
ATOM      4  C6  UNL     1      14.712  21.869   3.719  0.00  0.00    +0.000 A 
ATOM      5  C7  UNL     1      15.622  21.562   4.735  0.00  0.00    +0.000 A 
ATOM      6  C8  UNL     1      16.241  20.302   4.783  0.00  0.00    +0.000 A 
ENDROOT
BRANCH   6   7
ATOM      7  C9  UNL     1      17.232  19.980   5.844  0.00  0.00    +0.000 C 
ATOM      8  O3  UNL     1      17.002  19.730   7.012  0.00  0.00    +0.000 OA
BRANCH   7   9
ATOM      9  O4  UNL     1      18.498  19.981   5.384  0.00  0.00    +0.000 OA
ATOM     10  H8  UNL     1      18.620  20.891   5.041  0.00  0.00    +0.000 HD
ENDBRANCH   7   9
ENDBRANCH   6   7
BRANCH   1  11
ATOM     11  O2  UNL     1      16.506  18.094   3.756  0.00  0.00    +0.000 OA
BRANCH  11  13
ATOM     12  C1  UNL     1      17.025  17.091   1.693  0.00  0.00    +0.000 C 
ATOM     13  C2  UNL     1      17.498  18.002   2.787  0.00  0.00    +0.000 C 
ATOM     14  O1  UNL     1      18.594  18.547   2.807  0.00  0.00    +0.000 OA
ENDBRANCH  11  13
ENDBRANCH   1  11
TORSDOF 4
ENDMDL
MODEL 2
REMARK VINA RESULT:    -5.790      8.535     10.717
REMARK INTER + INTRA:          -7.400
REMARK INTER:                  -6.743
REMARK INTRA:                  -0.656
REMARK UNBOUND:                -0.425
REMARK  Name = /content/drive/MyDrive/Docking_Pipeline/raw_data/ligand_2244_3D.pdb
REMARK  5 active torsions:
REMARK  status: ('A' for Active; 'I' for Inactive)
REMARK    1  A    between atoms: C1_1  and  C2_2
REMARK    2  A    between atoms: C2_2  and  O2_4
REMARK    3  A    between atoms: O2_4  and  C3_5
REMARK    4  A    between atoms: C8_10  and  C9_11
REMARK    5  A    between atoms: C9_11  and  O4_13
REMARK                            x       y       z     vdW  Elec       q    Type
REMARK                         _______ _______ _______ _____ _____    ______ ____
ROOT
ATOM      1  C3  UNL     1      10.299  26.086   7.968  0.00  0.00    +0.000 A 
ATOM      2  C4  UNL     1      10.982  26.158   9.187  0.00  0.00    +0.000 A 
ATOM      3  C5  UNL     1      12.323  25.785   9.249  0.00  0.00    +0.000 A 
ATOM      4  C6  UNL     1      12.981  25.355   8.097  0.00  0.00    +0.000 A 
ATOM      5  C7  UNL     1      12.300  25.301   6.877  0.00  0.00    +0.000 A 
ATOM      6  C8  UNL     1      10.949  25.675   6.795  0.00  0.00    +0.000 A 
ENDROOT
BRANCH   6   7
ATOM      7  C9  UNL     1      10.228  25.649   5.495  0.00  0.00    +0.000 C 
ATOM      8  O3  UNL     1       9.956  24.670   4.825  0.00  0.00    +0.000 OA
BRANCH   7   9
ATOM      9  O4  UNL     1       9.867  26.879   5.081  0.00  0.00    +0.000 OA
ATOM     10  H8  UNL     1       9.472  27.286   5.880  0.00  0.00    +0.000 HD
ENDBRANCH   7   9
ENDBRANCH   6   7
BRANCH   1  11
ATOM     11  O2  UNL     1       8.964  26.502   7.969  0.00  0.00    +0.000 OA
BRANCH  11  13
ATOM     12  C1  UNL     1       8.154  28.089   9.503  0.00  0.00    +0.000 C 
ATOM     13  C2  UNL     1       8.832  27.869   8.183  0.00  0.00    +0.000 C 
ATOM     14  O1  UNL     1       9.183  28.765   7.427  0.00  0.00    +0.000 OA
ENDBRANCH  11  13
ENDBRANCH   1  11
TORSDOF 4
ENDMDL
MODEL 3
REMARK VINA RESULT:    -5.604      5.839      7.274
REMARK INTER + INTRA:          -7.176
REMARK INTER:                  -6.486
REMARK INTRA:                  -0.690
REMARK UNBOUND:                -0.425
REMARK  Name = /content/drive/MyDrive/Docking_Pipeline/raw_data/ligand_2244_3D.pdb
REMARK  5 active torsions:
REMARK  status: ('A' for Active; 'I' for Inactive)
REMARK    1  A    between atoms: C1_1  and  C2_2
REMARK    2  A    between atoms: C2_2  and  O2_4
REMARK    3  A    between atoms: O2_4  and  C3_5
REMARK    4  A    between atoms: C8_10  and  C9_11
REMARK    5  A    between atoms: C9_11  and  O4_13
REMARK                            x       y       z     vdW  Elec       q    Type
REMARK                         _______ _______ _______ _____ _____    ______ ____
ROOT
ATOM      1  C3  UNL     1      12.897  24.126   7.394  0.00  0.00    +0.000 A 
ATOM      2  C4  UNL     1      12.993  25.276   8.185  0.00  0.00    +0.000 A 
ATOM      3  C5  UNL     1      11.832  25.909   8.624  0.00  0.00    +0.000 A 
ATOM      4  C6  UNL     1      10.583  25.388   8.286  0.00  0.00    +0.000 A 
ATOM      5  C7  UNL     1      10.492  24.227   7.511  0.00  0.00    +0.000 A 
ATOM      6  C8  UNL     1      11.651  23.576   7.060  0.00  0.00    +0.000 A 
ENDROOT
BRANCH   6   7
ATOM      7  C9  UNL     1      11.561  22.325   6.261  0.00  0.00    +0.000 C 
ATOM      8  O3  UNL     1      11.206  22.218   5.103  0.00  0.00    +0.000 OA
BRANCH   7   9
ATOM      9  O4  UNL     1      11.931  21.237   6.964  0.00  0.00    +0.000 OA
ATOM     10  H8  UNL     1      11.195  21.108   7.597  0.00  0.00    +0.000 HD
ENDBRANCH   7   9
ENDBRANCH   6   7
BRANCH   1  11
ATOM     11  O2  UNL     1      14.100  23.524   7.011  0.00  0.00    +0.000 OA
BRANCH  11  13
ATOM     12  C1  UNL     1      16.060  23.495   8.310  0.00  0.00    +0.000 C 
ATOM     13  C2  UNL     1      14.723  22.862   8.062  0.00  0.00    +0.000 C 
ATOM     14  O1  UNL     1      14.285  21.904   8.687  0.00  0.00    +0.000 OA
ENDBRANCH  11  13
ENDBRANCH   1  11
TORSDOF 4
ENDMDL
MODEL 4
REMARK VINA RESULT:    -5.595      9.116     10.572
REMARK INTER + INTRA:          -7.164
REMARK INTER:                  -6.561
REMARK INTRA:                  -0.604
REMARK UNBOUND:                -0.425
REMARK  Name = /content/drive/MyDrive/Docking_Pipeline/raw_data/ligand_2244_3D.pdb
REMARK  5 active torsions:
REMARK  status: ('A' for Active; 'I' for Inactive)
REMARK    1  A    between atoms: C1_1  and  C2_2
REMARK    2  A    between atoms: C2_2  and  O2_4
REMARK    3  A    between atoms: O2_4  and  C3_5
REMARK    4  A    between atoms: C8_10  and  C9_11
REMARK    5  A    between atoms: C9_11  and  O4_13
REMARK                            x       y       z     vdW  Elec       q    Type
REMARK                         _______ _______ _______ _____ _____    ______ ____
ROOT
ATOM      1  C3  UNL     1      10.050  25.976   7.331  0.00  0.00    +0.000 A 
ATOM      2  C4  UNL     1      10.952  24.949   7.034  0.00  0.00    +0.000 A 
ATOM      3  C5  UNL     1      12.128  24.830   7.771  0.00  0.00    +0.000 A 
ATOM      4  C6  UNL     1      12.395  25.723   8.808  0.00  0.00    +0.000 A 
ATOM      5  C7  UNL     1      11.482  26.737   9.115  0.00  0.00    +0.000 A 
ATOM      6  C8  UNL     1      10.291  26.872   8.383  0.00  0.00    +0.000 A 
ENDROOT
BRANCH   6   7
ATOM      7  C9  UNL     1       9.302  27.928   8.724  0.00  0.00    +0.000 C 
ATOM      8  O3  UNL     1       8.565  27.960   9.691  0.00  0.00    +0.000 OA
BRANCH   7   9
ATOM      9  O4  UNL     1       9.281  28.926   7.819  0.00  0.00    +0.000 OA
ATOM     10  H8  UNL     1       9.965  28.664   7.168  0.00  0.00    +0.000 HD
ENDBRANCH   7   9
ENDBRANCH   6   7
BRANCH   1  11
ATOM     11  O2  UNL     1       8.876  26.022   6.573  0.00  0.00    +0.000 OA
BRANCH  11  13
ATOM     12  C1  UNL     1       9.002  25.568   4.269  0.00  0.00    +0.000 C 
ATOM     13  C2  UNL     1       9.064  26.622   5.334  0.00  0.00    +0.000 C 
ATOM     14  O1  UNL     1       9.270  27.810   5.120  0.00  0.00    +0.000 OA
ENDBRANCH  11  13
ENDBRANCH   1  11
TORSDOF 4
ENDMDL
MODEL 5
REMARK VINA RESULT:    -5.542      2.001      2.983
REMARK INTER + INTRA:          -7.101
REMARK INTER:                  -6.613
REMARK INTRA:                  -0.488
REMARK UNBOUND:                -0.425
REMARK  Name = /content/drive/MyDrive/Docking_Pipeline/raw_data/ligand_2244_3D.pdb
REMARK  5 active torsions:
REMARK  status: ('A' for Active; 'I' for Inactive)
REMARK    1  A    between atoms: C1_1  and  C2_2
REMARK    2  A    between atoms: C2_2  and  O2_4
REMARK    3  A    between atoms: O2_4  and  C3_5
REMARK    4  A    between atoms: C8_10  and  C9_11
REMARK    5  A    between atoms: C9_11  and  O4_13
REMARK                            x       y       z     vdW  Elec       q    Type
REMARK                         _______ _______ _______ _____ _____    ______ ____
ROOT
ATOM      1  C3  UNL     1      18.064  17.917   3.768  0.00  0.00    +0.000 A 
ATOM      2  C4  UNL     1      17.702  17.329   2.551  0.00  0.00    +0.000 A 
ATOM      3  C5  UNL     1      16.590  17.806   1.860  0.00  0.00    +0.000 A 
ATOM      4  C6  UNL     1      15.853  18.871   2.375  0.00  0.00    +0.000 A 
ATOM      5  C7  UNL     1      16.228  19.469   3.582  0.00  0.00    +0.000 A 
ATOM      6  C8  UNL     1      17.346  19.002   4.292  0.00  0.00    +0.000 A 
ENDROOT
BRANCH   6   7
ATOM      7  C9  UNL     1      17.769  19.652   5.561  0.00  0.00    +0.000 C 
ATOM      8  O3  UNL     1      17.097  19.816   6.561  0.00  0.00    +0.000 OA
BRANCH   7   9
ATOM      9  O4  UNL     1      19.047  20.077   5.522  0.00  0.00    +0.000 OA
ATOM     10  H8  UNL     1      19.089  20.749   6.234  0.00  0.00    +0.000 HD
ENDBRANCH   7   9
ENDBRANCH   6   7
BRANCH   1  11
ATOM     11  O2  UNL     1      19.206  17.411   4.397  0.00  0.00    +0.000 OA
BRANCH  11  13
ATOM     12  C1  UNL     1      20.171  15.387   5.105  0.00  0.00    +0.000 C 
ATOM     13  C2  UNL     1      18.947  16.253   5.121  0.00  0.00    +0.000 C 
ATOM     14  O1  UNL     1      17.896  15.955   5.674  0.00  0.00    +0.000 OA
ENDBRANCH  11  13
ENDBRANCH   1  11
TORSDOF 4
ENDMDL
MODEL 6
REMARK VINA RESULT:    -5.500      3.862      5.414
REMARK INTER + INTRA:          -7.050
REMARK INTER:                  -6.380
REMARK INTRA:                  -0.669
REMARK UNBOUND:                -0.425
REMARK  Name = /content/drive/MyDrive/Docking_Pipeline/raw_data/ligand_2244_3D.pdb
REMARK  5 active torsions:
REMARK  status: ('A' for Active; 'I' for Inactive)
REMARK    1  A    between atoms: C1_1  and  C2_2
REMARK    2  A    between atoms: C2_2  and  O2_4
REMARK    3  A    between atoms: O2_4  and  C3_5
REMARK    4  A    between atoms: C8_10  and  C9_11
REMARK    5  A    between atoms: C9_11  and  O4_13
REMARK                            x       y       z     vdW  Elec       q    Type
REMARK                         _______ _______ _______ _____ _____    ______ ____
ROOT
ATOM      1  C3  UNL     1      13.502  21.990   4.448  0.00  0.00    +0.000 A 
ATOM      2  C4  UNL     1      14.024  21.611   3.207  0.00  0.00    +0.000 A 
ATOM      3  C5  UNL     1      14.843  20.488   3.118  0.00  0.00    +0.000 A 
ATOM      4  C6  UNL     1      15.129  19.741   4.261  0.00  0.00    +0.000 A 
ATOM      5  C7  UNL     1      14.591  20.112   5.497  0.00  0.00    +0.000 A 
ATOM      6  C8  UNL     1      13.762  21.240   5.605  0.00  0.00    +0.000 A 
ENDROOT
BRANCH   6   7
ATOM      7  C9  UNL     1      13.161  21.622   6.910  0.00  0.00    +0.000 C 
ATOM      8  O3  UNL     1      13.718  22.173   7.841  0.00  0.00    +0.000 OA
BRANCH   7   9
ATOM      9  O4  UNL     1      11.857  21.294   6.994  0.00  0.00    +0.000 OA
ATOM     10  H8  UNL     1      11.833  20.362   6.693  0.00  0.00    +0.000 HD
ENDBRANCH   7   9
ENDBRANCH   6   7
BRANCH   1  11
ATOM     11  O2  UNL     1      12.664  23.109   4.463  0.00  0.00    +0.000 OA
BRANCH  11  13
ATOM     12  C1  UNL     1      11.209  23.703   2.714  0.00  0.00    +0.000 C 
ATOM     13  C2  UNL     1      11.410  22.843   3.926  0.00  0.00    +0.000 C 
ATOM     14  O1  UNL     1      10.578  22.057   4.361  0.00  0.00    +0.000 OA
ENDBRANCH  11  13
ENDBRANCH   1  11
TORSDOF 4
ENDMDL
MODEL 7
REMARK VINA RESULT:    -5.484      3.203      5.147
REMARK INTER + INTRA:          -7.031
REMARK INTER:                  -6.606
REMARK INTRA:                  -0.425
REMARK UNBOUND:                -0.425
REMARK  Name = /content/drive/MyDrive/Docking_Pipeline/raw_data/ligand_2244_3D.pdb
REMARK  5 active torsions:
REMARK  status: ('A' for Active; 'I' for Inactive)
REMARK    1  A    between atoms: C1_1  and  C2_2
REMARK    2  A    between atoms: C2_2  and  O2_4
REMARK    3  A    between atoms: O2_4  and  C3_5
REMARK    4  A    between atoms: C8_10  and  C9_11
REMARK    5  A    between atoms: C9_11  and  O4_13
REMARK                            x       y       z     vdW  Elec       q    Type
REMARK                         _______ _______ _______ _____ _____    ______ ____
ROOT
ATOM      1  C3  UNL     1      15.194  21.517   5.562  0.00  0.00    +0.000 A 
ATOM      2  C4  UNL     1      15.608  20.194   5.375  0.00  0.00    +0.000 A 
ATOM      3  C5  UNL     1      15.403  19.577   4.142  0.00  0.00    +0.000 A 
ATOM      4  C6  UNL     1      14.802  20.282   3.100  0.00  0.00    +0.000 A 
ATOM      5  C7  UNL     1      14.407  21.611   3.286  0.00  0.00    +0.000 A 
ATOM      6  C8  UNL     1      14.606  22.249   4.520  0.00  0.00    +0.000 A 
ENDROOT
BRANCH   6   7
ATOM      7  C9  UNL     1      14.216  23.671   4.715  0.00  0.00    +0.000 C 
ATOM      8  O3  UNL     1      13.087  24.120   4.778  0.00  0.00    +0.000 OA
BRANCH   7   9
ATOM      9  O4  UNL     1      15.282  24.487   4.828  0.00  0.00    +0.000 OA
ATOM     10  H8  UNL     1      16.043  23.905   4.622  0.00  0.00    +0.000 HD
ENDBRANCH   7   9
ENDBRANCH   6   7
BRANCH   1  11
ATOM     11  O2  UNL     1      15.454  22.087   6.812  0.00  0.00    +0.000 OA
BRANCH  11  13
ATOM     12  C1  UNL     1      15.029  21.878   9.116  0.00  0.00    +0.000 C 
ATOM     13  C2  UNL     1      14.446  21.833   7.735  0.00  0.00    +0.000 C 
ATOM     14  O1  UNL     1      13.272  21.589   7.487  0.00  0.00    +0.000 OA
ENDBRANCH  11  13
ENDBRANCH   1  11
TORSDOF 4
ENDMDL
MODEL 8
REMARK VINA RESULT:    -5.457      7.505      9.172
REMARK INTER + INTRA:          -6.998
REMARK INTER:                  -6.280
REMARK INTRA:                  -0.719
REMARK UNBOUND:                -0.425
REMARK  Name = /content/drive/MyDrive/Docking_Pipeline/raw_data/ligand_2244_3D.pdb
REMARK  5 active torsions:
REMARK  status: ('A' for Active; 'I' for Inactive)
REMARK    1  A    between atoms: C1_1  and  C2_2
REMARK    2  A    between atoms: C2_2  and  O2_4
REMARK    3  A    between atoms: O2_4  and  C3_5
REMARK    4  A    between atoms: C8_10  and  C9_11
REMARK    5  A    between atoms: C9_11  and  O4_13
REMARK                            x       y       z     vdW  Elec       q    Type
REMARK                         _______ _______ _______ _____ _____    ______ ____
ROOT
ATOM      1  C3  UNL     1      11.503  25.703   6.445  0.00  0.00    +0.000 A 
ATOM      2  C4  UNL     1      12.653  25.140   7.010  0.00  0.00    +0.000 A 
ATOM      3  C5  UNL     1      12.880  25.263   8.379  0.00  0.00    +0.000 A 
ATOM      4  C6  UNL     1      11.956  25.932   9.181  0.00  0.00    +0.000 A 
ATOM      5  C7  UNL     1      10.798  26.477   8.617  0.00  0.00    +0.000 A 
ATOM      6  C8  UNL     1      10.553  26.362   7.239  0.00  0.00    +0.000 A 
ENDROOT
BRANCH   6   7
ATOM      7  C9  UNL     1       9.310  26.912   6.638  0.00  0.00    +0.000 C 
ATOM      8  O3  UNL     1       9.032  28.085   6.470  0.00  0.00    +0.000 OA
BRANCH   7   9
ATOM      9  O4  UNL     1       8.448  25.948   6.260  0.00  0.00    +0.000 OA
ATOM     10  H8  UNL     1       7.568  26.358   6.391  0.00  0.00    +0.000 HD
ENDBRANCH   7   9
ENDBRANCH   6   7
BRANCH   1  11
ATOM     11  O2  UNL     1      11.322  25.519   5.071  0.00  0.00    +0.000 OA
BRANCH  11  13
ATOM     12  C1  UNL     1      11.947  23.694   3.727  0.00  0.00    +0.000 C 
ATOM     13  C2  UNL     1      10.979  24.212   4.749  0.00  0.00    +0.000 C 
ATOM     14  O1  UNL     1      10.036  23.571   5.194  0.00  0.00    +0.000 OA
ENDBRANCH  11  13
ENDBRANCH   1  11
TORSDOF 4
ENDMDL
MODEL 9
REMARK VINA RESULT:    -5.442      1.749      3.536
REMARK INTER + INTRA:          -6.980
REMARK INTER:                  -6.340
REMARK INTRA:                  -0.640
REMARK UNBOUND:                -0.425
REMARK  Name = /content/drive/MyDrive/Docking_Pipeline/raw_data/ligand_2244_3D.pdb
REMARK  5 active torsions:
REMARK  status: ('A' for Active; 'I' for Inactive)
REMARK    1  A    between atoms: C1_1  and  C2_2
REMARK    2  A    between atoms: C2_2  and  O2_4
REMARK    3  A    between atoms: O2_4  and  C3_5
REMARK    4  A    between atoms: C8_10  and  C9_11
REMARK    5  A    between atoms: C9_11  and  O4_13
REMARK                            x       y       z     vdW  Elec       q    Type
REMARK                         _______ _______ _______ _____ _____    ______ ____
ROOT
ATOM      1  C3  UNL     1      16.098  18.816   4.306  0.00  0.00    +0.000 A 
ATOM      2  C4  UNL     1      15.270  18.487   3.228  0.00  0.00    +0.000 A 
ATOM      3  C5  UNL     1      15.820  17.903   2.089  0.00  0.00    +0.000 A 
ATOM      4  C6  UNL     1      17.188  17.636   2.034  0.00  0.00    +0.000 A 
ATOM      5  C7  UNL     1      18.010  17.949   3.121  0.00  0.00    +0.000 A 
ATOM      6  C8  UNL     1      17.473  18.537   4.277  0.00  0.00    +0.000 A 
ENDROOT
BRANCH   6   7
ATOM      7  C9  UNL     1      18.336  18.844   5.448  0.00  0.00    +0.000 C 
ATOM      8  O3  UNL     1      18.746  18.060   6.284  0.00  0.00    +0.000 OA
BRANCH   7   9
ATOM      9  O4  UNL     1      18.660  20.149   5.523  0.00  0.00    +0.000 OA
ATOM     10  H8  UNL     1      18.571  20.464   4.599  0.00  0.00    +0.000 HD
ENDBRANCH   7   9
ENDBRANCH   6   7
BRANCH   1  11
ATOM     11  O2  UNL     1      15.479  19.373   5.429  0.00  0.00    +0.000 OA
BRANCH  11  13
ATOM     12  C1  UNL     1      13.758  20.951   5.711  0.00  0.00    +0.000 C 
ATOM     13  C2  UNL     1      15.168  20.716   5.256  0.00  0.00    +0.000 C 
ATOM     14  O1  UNL     1      15.898  21.582   4.791  0.00  0.00    +0.000 OA
ENDBRANCH  11  13
ENDBRANCH   1  11
TORSDOF 4
ENDMDL
