MODEL 1
REMARK VINA RESULT:    -9.865      0.000      0.000
REMARK INTER + INTRA:         -10.442
REMARK INTER:                 -10.442
REMARK INTRA:                   0.000
REMARK UNBOUND:                 0.000
REMARK  Name = /content/drive/MyDrive/Docking_Pipeline/raw_data/ligand_5281034_3D.pdb
REMARK  5 active torsions:
REMARK  status: ('A' for Active; 'I' for Inactive)
REMARK    1  A    between atoms: C1_1  and  C2_2
REMARK    2  A    between atoms: C10_10  and  C11_11
REMARK    3  A    between atoms: C10_10  and  O1_12
REMARK    4  A    between atoms: C15_16  and  C21_24
REMARK    5  A    between atoms: C18_19  and  O2_20
REMARK                            x       y       z     vdW  Elec       q    Type
REMARK                         _______ _______ _______ _____ _____    ______ ____
ROOT
ATOM      1  C1  UNL     1      13.765  21.690   7.918  0.00  0.00    +0.000 C 
ATOM      2  C2  UNL     1      13.643  22.301   6.506  0.00  0.00    +0.000 C 
ATOM      3  C3  UNL     1      12.211  22.055   5.946  0.00  0.00    +0.000 C 
ATOM      4  C4  UNL     1      11.225  23.227   6.062  0.00  0.00    +0.000 C 
ATOM      5  C5  UNL     1      11.537  24.153   7.235  0.00  0.00    +0.000 C 
ATOM      6  C6  UNL     1      12.936  24.776   7.075  0.00  0.00    +0.000 C 
ATOM      7  C7  UNL     1      14.005  23.808   6.518  0.00  0.00    +0.000 C 
ATOM      8  C8  UNL     1      14.355  24.104   5.043  0.00  0.00    +0.000 C 
ATOM      9  C9  UNL     1      14.805  22.777   4.418  0.00  0.00    +0.000 C 
ATOM     10  C10 UNL     1      14.756  21.745   5.554  0.00  0.00    +0.000 C 
ATOM     11  C11 UNL     1      14.568  20.320   5.038  0.00  0.00    +0.000 C 
ATOM     12  C12 UNL     1      13.363  25.382   8.432  0.00  0.00    +0.000 C 
ATOM     13  C13 UNL     1      12.232  26.150   9.140  0.00  0.00    +0.000 C 
ATOM     14  C14 UNL     1      11.116  26.514   8.159  0.00  0.00    +0.000 C 
ATOM     15  C15 UNL     1      10.439  25.243   7.553  0.00  0.00    +0.000 C 
ATOM     16  C16 UNL     1       9.659  25.747   6.311  0.00  0.00    +0.000 C 
ATOM     17  C17 UNL     1       8.696  26.870   6.618  0.00  0.00    +0.000 C 
ATOM     18  C18 UNL     1       7.487  27.040   6.057  0.00  0.00    +0.000 C 
ATOM     19  C19 UNL     1       9.075  27.885   7.666  0.00  0.00    +0.000 C 
ATOM     20  O3  UNL     1       8.529  28.988   7.709  0.00  0.00    +0.000 OA
ATOM     21  C20 UNL     1      10.095  27.494   8.722  0.00  0.00    +0.000 C 
ATOM     22  C21 UNL     1       9.430  24.577   8.531  0.00  0.00    +0.000 C 
ENDROOT
BRANCH  10  23
ATOM     23  O1  UNL     1      16.037  21.799   6.198  0.00  0.00    +0.000 OA
ATOM     24  H18 UNL     1      15.936  21.461   7.105  0.00  0.00    +0.000 HD
ENDBRANCH  10  23
BRANCH  18  25
ATOM     25  O2  UNL     1       6.915  26.265   5.084  0.00  0.00    +0.000 OA
ATOM     26  H27 UNL     1       7.595  25.754   4.618  0.00  0.00    +0.000 HD
ENDBRANCH  18  25
TORSDOF 2
ENDMDL
MODEL 2
REMARK VINA RESULT:    -9.288      2.759      8.669
REMARK INTER + INTRA:          -9.831
REMARK INTER:                  -9.831
REMARK INTRA:                   0.000
REMARK UNBOUND:                 0.000
REMARK  Name = /content/drive/MyDrive/Docking_Pipeline/raw_data/ligand_5281034_3D.pdb
REMARK  5 active torsions:
REMARK  status: ('A' for Active; 'I' for Inactive)
REMARK    1  A    between atoms: C1_1  and  C2_2
REMARK    2  A    between atoms: C10_10  and  C11_11
REMARK    3  A    between atoms: C10_10  and  O1_12
REMARK    4  A    between atoms: C15_16  and  C21_24
REMARK    5  A    between atoms: C18_19  and  O2_20
REMARK                            x       y       z     vdW  Elec       q    Type
REMARK                         _______ _______ _______ _____ _____    ______ ____
ROOT
ATOM      1  C1  UNL     1      11.245  22.035   4.854  0.00  0.00    +0.000 C 
ATOM      2  C2  UNL     1      12.439  22.789   5.477  0.00  0.00    +0.000 C 
ATOM      3  C3  UNL     1      12.984  21.993   6.700  0.00  0.00    +0.000 C 
ATOM      4  C4  UNL     1      14.227  21.127   6.447  0.00  0.00    +0.000 C 
ATOM      5  C5  UNL     1      14.337  20.651   5.001  0.00  0.00    +0.000 C 
ATOM      6  C6  UNL     1      14.444  21.853   4.044  0.00  0.00    +0.000 C 
ATOM      7  C7  UNL     1      13.544  23.051   4.422  0.00  0.00    +0.000 C 
ATOM      8  C8  UNL     1      14.348  24.222   5.031  0.00  0.00    +0.000 C 
ATOM      9  C9  UNL     1      13.396  24.974   5.971  0.00  0.00    +0.000 C 
ATOM     10  C10 UNL     1      12.044  24.257   5.853  0.00  0.00    +0.000 C 
ATOM     11  C11 UNL     1      11.179  24.437   7.100  0.00  0.00    +0.000 C 
ATOM     12  C12 UNL     1      14.168  21.362   2.604  0.00  0.00    +0.000 C 
ATOM     13  C13 UNL     1      14.855  20.025   2.273  0.00  0.00    +0.000 C 
ATOM     14  C14 UNL     1      15.986  19.730   3.259  0.00  0.00    +0.000 C 
ATOM     15  C15 UNL     1      15.457  19.574   4.720  0.00  0.00    +0.000 C 
ATOM     16  C16 UNL     1      16.710  19.703   5.626  0.00  0.00    +0.000 C 
ATOM     17  C17 UNL     1      17.816  18.738   5.266  0.00  0.00    +0.000 C 
ATOM     18  C18 UNL     1      18.627  18.116   6.139  0.00  0.00    +0.000 C 
ATOM     19  C19 UNL     1      18.033  18.392   3.815  0.00  0.00    +0.000 C 
ATOM     20  O3  UNL     1      19.102  17.919   3.428  0.00  0.00    +0.000 OA
ATOM     21  C20 UNL     1      16.877  18.565   2.844  0.00  0.00    +0.000 C 
ATOM     22  C21 UNL     1      14.804  18.186   4.977  0.00  0.00    +0.000 C 
ENDROOT
BRANCH  10  23
ATOM     23  O1  UNL     1      11.353  24.883   4.762  0.00  0.00    +0.000 OA
ATOM     24  H18 UNL     1      11.983  25.003   4.031  0.00  0.00    +0.000 HD
ENDBRANCH  10  23
BRANCH  18  25
ATOM     25  O2  UNL     1      18.637  18.261   7.500  0.00  0.00    +0.000 OA
ATOM     26  H27 UNL     1      19.531  18.473   7.808  0.00  0.00    +0.000 HD
ENDBRANCH  18  25
TORSDOF 2
ENDMDL
MODEL 3
REMARK VINA RESULT:    -9.256      2.977      7.705
REMARK INTER + INTRA:          -9.798
REMARK INTER:                  -9.798
REMARK INTRA:                   0.000
REMARK UNBOUND:                 0.000
REMARK  Name = /content/drive/MyDrive/Docking_Pipeline/raw_data/ligand_5281034_3D.pdb
REMARK  5 active torsions:
REMARK  status: ('A' for Active; 'I' for Inactive)
REMARK    1  A    between atoms: C1_1  and  C2_2
REMARK    2  A    between atoms: C10_10  and  C11_11
REMARK    3  A    between atoms: C10_10  and  O1_12
REMARK    4  A    between atoms: C15_16  and  C21_24
REMARK    5  A    between atoms: C18_19  and  O2_20
REMARK                            x       y       z     vdW  Elec       q    Type
REMARK                         _______ _______ _______ _____ _____    ______ ____
ROOT
ATOM      1  C1  UNL     1      10.926  25.484   4.849  0.00  0.00    +0.000 C 
ATOM      2  C2  UNL     1      10.431  24.404   3.864  0.00  0.00    +0.000 C 
ATOM      3  C3  UNL     1      11.417  24.293   2.664  0.00  0.00    +0.000 C 
ATOM      4  C4  UNL     1      12.437  23.147   2.726  0.00  0.00    +0.000 C 
ATOM      5  C5  UNL     1      12.780  22.732   4.154  0.00  0.00    +0.000 C 
ATOM      6  C6  UNL     1      11.522  22.233   4.888  0.00  0.00    +0.000 C 
ATOM      7  C7  UNL     1      10.241  23.041   4.580  0.00  0.00    +0.000 C 
ATOM      8  C8  UNL     1       9.275  22.279   3.647  0.00  0.00    +0.000 C 
ATOM      9  C9  UNL     1       8.479  23.337   2.870  0.00  0.00    +0.000 C 
ATOM     10  C10 UNL     1       8.963  24.693   3.401  0.00  0.00    +0.000 C 
ATOM     11  C11 UNL     1       8.773  25.818   2.386  0.00  0.00    +0.000 C 
ATOM     12  C12 UNL     1      11.821  22.191   6.405  0.00  0.00    +0.000 C 
ATOM     13  C13 UNL     1      13.210  21.617   6.737  0.00  0.00    +0.000 C 
ATOM     14  C14 UNL     1      13.772  20.821   5.557  0.00  0.00    +0.000 C 
ATOM     15  C15 UNL     1      13.986  21.721   4.299  0.00  0.00    +0.000 C 
ATOM     16  C16 UNL     1      14.142  20.736   3.112  0.00  0.00    +0.000 C 
ATOM     17  C17 UNL     1      15.227  19.706   3.322  0.00  0.00    +0.000 C 
ATOM     18  C18 UNL     1      16.049  19.230   2.371  0.00  0.00    +0.000 C 
ATOM     19  C19 UNL     1      15.459  19.170   4.711  0.00  0.00    +0.000 C 
ATOM     20  O3  UNL     1      16.052  18.106   4.891  0.00  0.00    +0.000 OA
ATOM     21  C20 UNL     1      15.015  20.008   5.898  0.00  0.00    +0.000 C 
ATOM     22  C21 UNL     1      15.274  22.588   4.393  0.00  0.00    +0.000 C 
ENDROOT
BRANCH  10  23
ATOM     23  O1  UNL     1       8.134  24.998   4.533  0.00  0.00    +0.000 OA
ATOM     24  H18 UNL     1       8.241  25.941   4.744  0.00  0.00    +0.000 HD
ENDBRANCH  10  23
BRANCH  18  25
ATOM     25  O2  UNL     1      16.041  19.550   1.040  0.00  0.00    +0.000 OA
ATOM     26  H27 UNL     1      15.360  20.216   0.859  0.00  0.00    +0.000 HD
ENDBRANCH  18  25
TORSDOF 2
ENDMDL
MODEL 4
REMARK VINA RESULT:    -8.187      2.145      4.000
REMARK INTER + INTRA:          -8.665
REMARK INTER:                  -8.665
REMARK INTRA:                   0.000
REMARK UNBOUND:                 0.000
REMARK  Name = /content/drive/MyDrive/Docking_Pipeline/raw_data/ligand_5281034_3D.pdb
REMARK  5 active torsions:
REMARK  status: ('A' for Active; 'I' for Inactive)
REMARK    1  A    between atoms: C1_1  and  C2_2
REMARK    2  A    between atoms: C10_10  and  C11_11
REMARK    3  A    between atoms: C10_10  and  O1_12
REMARK    4  A    between atoms: C15_16  and  C21_24
REMARK    5  A    between atoms: C18_19  and  O2_20
REMARK                            x       y       z     vdW  Elec       q    Type
REMARK                         _______ _______ _______ _____ _____    ______ ____
ROOT
ATOM      1  C1  UNL     1      16.326  21.732   6.135  0.00  0.00    +0.000 C 
ATOM      2  C2  UNL     1      16.100  21.953   7.645  0.00  0.00    +0.000 C 
ATOM      3  C3  UNL     1      16.261  23.465   7.986  0.00  0.00    +0.000 C 
ATOM      4  C4  UNL     1      14.962  24.272   8.118  0.00  0.00    +0.000 C 
ATOM      5  C5  UNL     1      13.818  23.702   7.285  0.00  0.00    +0.000 C 
ATOM      6  C6  UNL     1      13.484  22.267   7.735  0.00  0.00    +0.000 C 
ATOM      7  C7  UNL     1      14.719  21.407   8.088  0.00  0.00    +0.000 C 
ATOM      8  C8  UNL     1      14.883  21.212   9.612  0.00  0.00    +0.000 C 
ATOM      9  C9  UNL     1      16.382  21.015   9.876  0.00  0.00    +0.000 C 
ATOM     10  C10 UNL     1      17.054  21.048   8.496  0.00  0.00    +0.000 C 
ATOM     11  C11 UNL     1      18.519  21.477   8.572  0.00  0.00    +0.000 C 
ATOM     12  C12 UNL     1      12.613  21.599   6.645  0.00  0.00    +0.000 C 
ATOM     13  C13 UNL     1      11.519  22.526   6.085  0.00  0.00    +0.000 C 
ATOM     14  C14 UNL     1      11.260  23.703   7.028  0.00  0.00    +0.000 C 
ATOM     15  C15 UNL     1      12.525  24.605   7.192  0.00  0.00    +0.000 C 
ATOM     16  C16 UNL     1      12.254  25.466   8.452  0.00  0.00    +0.000 C 
ATOM     17  C17 UNL     1      10.954  26.235   8.390  0.00  0.00    +0.000 C 
ATOM     18  C18 UNL     1      10.754  27.474   8.869  0.00  0.00    +0.000 C 
ATOM     19  C19 UNL     1       9.769  25.602   7.706  0.00  0.00    +0.000 C 
ATOM     20  O3  UNL     1       8.624  25.995   7.927  0.00  0.00    +0.000 OA
ATOM     21  C20 UNL     1      10.020  24.513   6.676  0.00  0.00    +0.000 C 
ATOM     22  C21 UNL     1      12.743  25.558   5.982  0.00  0.00    +0.000 C 
ENDROOT
BRANCH  10  23
ATOM     23  O1  UNL     1      17.031  19.700   8.007  0.00  0.00    +0.000 OA
ATOM     24  H18 UNL     1      16.157  19.533   7.614  0.00  0.00    +0.000 HD
ENDBRANCH  10  23
BRANCH  18  25
ATOM     25  O2  UNL     1      11.661  28.257   9.531  0.00  0.00    +0.000 OA
ATOM     26  H27 UNL     1      12.301  27.703  10.003  0.00  0.00    +0.000 HD
ENDBRANCH  18  25
TORSDOF 2
ENDMDL
MODEL 5
REMARK VINA RESULT:    -7.668      2.494      4.285
REMARK INTER + INTRA:          -8.116
REMARK INTER:                  -8.116
REMARK INTRA:                   0.000
REMARK UNBOUND:                 0.000
REMARK  Name = /content/drive/MyDrive/Docking_Pipeline/raw_data/ligand_5281034_3D.pdb
REMARK  5 active torsions:
REMARK  status: ('A' for Active; 'I' for Inactive)
REMARK    1  A    between atoms: C1_1  and  C2_2
REMARK    2  A    between atoms: C10_10  and  C11_11
REMARK    3  A    between atoms: C10_10  and  O1_12
REMARK    4  A    between atoms: C15_16  and  C21_24
REMARK    5  A    between atoms: C18_19  and  O2_20
REMARK                            x       y       z     vdW  Elec       q    Type
REMARK                         _______ _______ _______ _____ _____    ______ ____
ROOT
ATOM      1  C1  UNL     1      14.026  22.009   3.315  0.00  0.00    +0.000 C 
ATOM      2  C2  UNL     1      13.580  22.311   4.761  0.00  0.00    +0.000 C 
ATOM      3  C3  UNL     1      13.587  23.849   5.005  0.00  0.00    +0.000 C 
ATOM      4  C4  UNL     1      12.230  24.559   4.903  0.00  0.00    +0.000 C 
ATOM      5  C5  UNL     1      11.254  23.847   3.971  0.00  0.00    +0.000 C 
ATOM      6  C6  UNL     1      10.961  22.423   4.480  0.00  0.00    +0.000 C 
ATOM      7  C7  UNL     1      12.191  21.688   5.057  0.00  0.00    +0.000 C 
ATOM      8  C8  UNL     1      12.158  21.606   6.600  0.00  0.00    +0.000 C 
ATOM      9  C9  UNL     1      13.616  21.545   7.074  0.00  0.00    +0.000 C 
ATOM     10  C10 UNL     1      14.468  21.541   5.797  0.00  0.00    +0.000 C 
ATOM     11  C11 UNL     1      15.875  22.088   6.034  0.00  0.00    +0.000 C 
ATOM     12  C12 UNL     1      10.297  21.619   3.338  0.00  0.00    +0.000 C 
ATOM     13  C13 UNL     1       9.229  22.418   2.570  0.00  0.00    +0.000 C 
ATOM     14  C14 UNL     1       8.762  23.630   3.379  0.00  0.00    +0.000 C 
ATOM     15  C15 UNL     1       9.927  24.637   3.639  0.00  0.00    +0.000 C 
ATOM     16  C16 UNL     1       9.426  25.556   4.785  0.00  0.00    +0.000 C 
ATOM     17  C17 UNL     1       8.098  26.214   4.493  0.00  0.00    +0.000 C 
ATOM     18  C18 UNL     1       7.748  27.463   4.846  0.00  0.00    +0.000 C 
ATOM     19  C19 UNL     1       7.065  25.446   3.708  0.00  0.00    +0.000 C 
ATOM     20  O3  UNL     1       5.875  25.762   3.745  0.00  0.00    +0.000 OA
ATOM     21  C20 UNL     1       7.529  24.316   2.805  0.00  0.00    +0.000 C 
ATOM     22  C21 UNL     1      10.243  25.523   2.401  0.00  0.00    +0.000 C 
ENDROOT
BRANCH  10  23
ATOM     23  O1  UNL     1      14.606  20.165   5.412  0.00  0.00    +0.000 OA
ATOM     24  H18 UNL     1      15.035  20.134   4.540  0.00  0.00    +0.000 HD
ENDBRANCH  10  23
BRANCH  18  25
ATOM     25  O2  UNL     1       8.499  28.356   5.561  0.00  0.00    +0.000 OA
ATOM     26  H27 UNL     1       9.278  27.916   5.936  0.00  0.00    +0.000 HD
ENDBRANCH  18  25
TORSDOF 2
ENDMDL
