REMARK  Name = /content/drive/MyDrive/Docking_Pipeline/raw_data/ligand_2244_3D.pdb
REMARK  5 active torsions:
REMARK  status: ('A' for Active; 'I' for Inactive)
REMARK    1  A    between atoms: C1_1  and  C2_2
REMARK    2  A    between atoms: C2_2  and  O2_4
REMARK    3  A    between atoms: O2_4  and  C3_5
REMARK    4  A    between atoms: C8_10  and  C9_11
REMARK    5  A    between atoms: C9_11  and  O4_13
REMARK                            x       y       z     vdW  Elec       q    Type
REMARK                         _______ _______ _______ _____ _____    ______ ____
ROOT
ATOM      1  C3  UNL     1      -0.112   0.338  -0.561  0.00  0.00    +0.000 A 
ATOM      2  C4  UNL     1      -0.464   1.587  -1.084  0.00  0.00    +0.000 A 
ATOM      3  C5  UNL     1       0.378   2.679  -0.886  0.00  0.00    +0.000 A 
ATOM      4  C6  UNL     1       1.571   2.521  -0.181  0.00  0.00    +0.000 A 
ATOM      5  C7  UNL     1       1.929   1.267   0.324  0.00  0.00    +0.000 A 
ATOM      6  C8  UNL     1       1.093   0.155   0.133  0.00  0.00    +0.000 A 
ENDROOT
BRANCH   6   7
ATOM      7  C9  UNL     1       1.482  -1.187   0.641  0.00  0.00    +0.000 C 
ATOM      8  O3  UNL     1       0.889  -2.236   0.473  0.00  0.00    +0.000 OA
BRANCH   7   9
ATOM      9  O4  UNL     1       2.626  -1.158   1.352  0.00  0.00    +0.000 OA
ATOM     10  H8  UNL     1       2.748  -2.089   1.633  0.00  0.00    +0.000 HD
ENDBRANCH   7   9
ENDBRANCH   6   7
BRANCH   1  11
ATOM     11  O2  UNL     1      -0.986  -0.722  -0.820  0.00  0.00    +0.000 OA
BRANCH  11  13
ATOM     12  C1  UNL     1      -2.652  -2.204  -0.073  0.00  0.00    +0.000 C 
ATOM     13  C2  UNL     1      -1.824  -0.997   0.254  0.00  0.00    +0.000 C 
ATOM     14  O1  UNL     1      -1.908  -0.363   1.298  0.00  0.00    +0.000 OA
ENDBRANCH  11  13
ENDBRANCH   1  11
TORSDOF 4
