REMARK  Name = /content/drive/MyDrive/Docking_Pipeline/raw_data/ligand_5281034_3D.pdb
REMARK  5 active torsions:
REMARK  status: ('A' for Active; 'I' for Inactive)
REMARK    1  A    between atoms: C1_1  and  C2_2
REMARK    2  A    between atoms: C10_10  and  C11_11
REMARK    3  A    between atoms: C10_10  and  O1_12
REMARK    4  A    between atoms: C15_16  and  C21_24
REMARK    5  A    between atoms: C18_19  and  O2_20
REMARK                            x       y       z     vdW  Elec       q    Type
REMARK                         _______ _______ _______ _____ _____    ______ ____
ROOT
ATOM      1  C1  UNL     1      -2.835  -1.000   1.340  0.00  0.00    +0.000 C 
ATOM      2  C2  UNL     1      -2.559   0.061   0.254  0.00  0.00    +0.000 C 
ATOM      3  C3  UNL     1      -1.797   1.268   0.877  0.00  0.00    +0.000 C 
ATOM      4  C4  UNL     1      -0.276   1.292   0.668  0.00  0.00    +0.000 C 
ATOM      5  C5  UNL     1       0.324  -0.101   0.498  0.00  0.00    +0.000 C 
ATOM      6  C6  UNL     1      -0.273  -0.799  -0.738  0.00  0.00    +0.000 C 
ATOM      7  C7  UNL     1      -1.785  -0.553  -0.941  0.00  0.00    +0.000 C 
ATOM      8  C8  UNL     1      -2.071   0.432  -2.096  0.00  0.00    +0.000 C 
ATOM      9  C9  UNL     1      -3.399   1.128  -1.769  0.00  0.00    +0.000 C 
ATOM     10  C10 UNL     1      -3.885   0.499  -0.456  0.00  0.00    +0.000 C 
ATOM     11  C11 UNL     1      -4.808   1.429   0.329  0.00  0.00    +0.000 C 
ATOM     12  C12 UNL     1       0.056  -2.308  -0.658  0.00  0.00    +0.000 C 
ATOM     13  C13 UNL     1       1.500  -2.595  -0.209  0.00  0.00    +0.000 C 
ATOM     14  C14 UNL     1       2.385  -1.359  -0.382  0.00  0.00    +0.000 C 
ATOM     15  C15 UNL     1       1.902  -0.170   0.508  0.00  0.00    +0.000 C 
ATOM     16  C16 UNL     1       2.601   1.087  -0.072  0.00  0.00    +0.000 C 
ATOM     17  C17 UNL     1       4.104   0.955  -0.159  0.00  0.00    +0.000 C 
ATOM     18  C18 UNL     1       4.991   1.939   0.067  0.00  0.00    +0.000 C 
ATOM     19  C19 UNL     1       4.696  -0.391  -0.490  0.00  0.00    +0.000 C 
ATOM     20  O3  UNL     1       5.845  -0.491  -0.921  0.00  0.00    +0.000 OA
ATOM     21  C20 UNL     1       3.873  -1.637  -0.209  0.00  0.00    +0.000 C 
ATOM     22  C21 UNL     1       2.324  -0.325   1.997  0.00  0.00    +0.000 C 
ENDROOT
BRANCH  10  23
ATOM     23  O1  UNL     1      -4.657  -0.653  -0.826  0.00  0.00    +0.000 OA
ATOM     24  H18 UNL     1      -5.108  -0.986  -0.031  0.00  0.00    +0.000 HD
ENDBRANCH  10  23
BRANCH  18  25
ATOM     25  O2  UNL     1       4.712   3.243   0.377  0.00  0.00    +0.000 OA
ATOM     26  H27 UNL     1       3.758   3.406   0.316  0.00  0.00    +0.000 HD
ENDBRANCH  18  25
TORSDOF 2
