REMARK  Name = /content/drive/MyDrive/Docking_Pipeline/raw_data/ligand_5291_3D.pdb
REMARK  8 active torsions:
REMARK  status: ('A' for Active; 'I' for Inactive)
REMARK    1  A    between atoms: C1_1  and  C2_2
REMARK    2  A    between atoms: C3_3  and  N4_25
REMARK    3  A    between atoms: C5_5  and  N1_8
REMARK    4  A    between atoms: C8_9  and  C9_11
REMARK    5  A    between atoms: C12_14  and  C15_17
REMARK    6  A    between atoms: C15_17  and  N2_18
REMARK    7  A    between atoms: N3_21  and  C20_24
REMARK    8  A    between atoms: C24_30  and  C25_32
REMARK                            x       y       z     vdW  Elec       q    Type
REMARK                         _______ _______ _______ _____ _____    ______ ____
ROOT
ATOM      1  C1  UNL     1       4.658   4.815  -0.389  0.00  0.00    +0.000 C 
ATOM      2  C2  UNL     1       3.451   3.962  -0.103  0.00  0.00    +0.000 A 
ATOM      3  C3  UNL     1       3.516   2.550  -0.097  0.00  0.00    +0.000 A 
ATOM      4  C4  UNL     1       2.332   1.843   0.170  0.00  0.00    +0.000 A 
ATOM      5  C5  UNL     1       1.118   2.488   0.456  0.00  0.00    +0.000 A 
ATOM      6  C6  UNL     1       1.081   3.876   0.468  0.00  0.00    +0.000 A 
ATOM      7  C7  UNL     1       2.237   4.607   0.190  0.00  0.00    +0.000 A 
ENDROOT
BRANCH   3   8
ATOM      8  N4  UNL     1       4.735   1.903  -0.359  0.00  0.00    +0.000 N 
ATOM      9  C21 UNL     1       5.146   0.575  -0.419  0.00  0.00    +0.000 A 
ATOM     10  N5  UNL     1       4.302  -0.448  -0.240  0.00  0.00    +0.000 NA
ATOM     11  C22 UNL     1       4.812  -1.688  -0.312  0.00  0.00    +0.000 A 
ATOM     12  C23 UNL     1       6.136  -1.950  -0.561  0.00  0.00    +0.000 A 
ATOM     13  C24 UNL     1       6.950  -0.851  -0.745  0.00  0.00    +0.000 A 
ATOM     14  N6  UNL     1       6.457   0.406  -0.666  0.00  0.00    +0.000 NA
ATOM     15  H25 UNL     1       5.543   2.489  -0.508  0.00  0.00    +0.000 HD
BRANCH  13  16
ATOM     16  C25 UNL     1       8.396  -0.953  -1.023  0.00  0.00    +0.000 A 
ATOM     17  C26 UNL     1       9.270   0.091  -0.703  0.00  0.00    +0.000 A 
ATOM     18  N7  UNL     1      10.612   0.085  -0.916  0.00  0.00    +0.000 NA
ATOM     19  C27 UNL     1      11.129  -1.019  -1.488  0.00  0.00    +0.000 A 
ATOM     20  C28 UNL     1      10.368  -2.116  -1.852  0.00  0.00    +0.000 A 
ATOM     21  C29 UNL     1       8.992  -2.076  -1.618  0.00  0.00    +0.000 A 
ENDBRANCH  13  16
ENDBRANCH   3   8
BRANCH   5  22
ATOM     22  N1  UNL     1      -0.002   1.668   0.706  0.00  0.00    +0.000 N 
ATOM     23  C8  UNL     1      -1.262   2.067   1.112  0.00  0.00    +0.000 C 
ATOM     24  O1  UNL     1      -1.636   3.201   1.383  0.00  0.00    +0.000 OA
ATOM     25  H7  UNL     1       0.162   0.671   0.631  0.00  0.00    +0.000 HD
BRANCH  23  26
ATOM     26  C9  UNL     1      -2.234   0.952   1.262  0.00  0.00    +0.000 A 
ATOM     27  C10 UNL     1      -2.348  -0.042   0.285  0.00  0.00    +0.000 A 
ATOM     28  C11 UNL     1      -3.282  -1.068   0.447  0.00  0.00    +0.000 A 
ATOM     29  C12 UNL     1      -4.099  -1.117   1.587  0.00  0.00    +0.000 A 
ATOM     30  C13 UNL     1      -3.978  -0.110   2.558  0.00  0.00    +0.000 A 
ATOM     31  C14 UNL     1      -3.057   0.925   2.392  0.00  0.00    +0.000 A 
BRANCH  29  32
ATOM     32  C15 UNL     1      -5.127  -2.221   1.737  0.00  0.00    +0.000 C 
BRANCH  32  33
ATOM     33  N2  UNL     1      -6.288  -2.032   0.860  0.00  0.00    +0.000 NA
ATOM     34  C16 UNL     1      -7.105  -0.861   1.255  0.00  0.00    +0.000 C 
ATOM     35  C17 UNL     1      -8.591  -0.931   0.811  0.00  0.00    +0.000 C 
ATOM     36  N3  UNL     1      -8.856  -1.733  -0.397  0.00  0.00    +0.000 NA
ATOM     37  C18 UNL     1      -8.286  -3.091  -0.230  0.00  0.00    +0.000 C 
ATOM     38  C19 UNL     1      -7.130  -3.233   0.798  0.00  0.00    +0.000 C 
ATOM     39  C20 UNL     1      -8.301  -1.076  -1.584  0.00  0.00    +0.000 C 
ENDBRANCH  32  33
ENDBRANCH  29  32
ENDBRANCH  23  26
ENDBRANCH   5  22
TORSDOF 6
