REMARK  Name = /content/drive/MyDrive/Docking_Pipeline/raw_data/ligand_123631_3D.pdb
REMARK  9 active torsions:
REMARK  status: ('A' for Active; 'I' for Inactive)
REMARK    1  A    between atoms: C1_1  and  O1_2
REMARK    2  A    between atoms: O1_2  and  C2_3
REMARK    3  A    between atoms: C3_4  and  O2_22
REMARK    4  A    between atoms: C9_12  and  N3_13
REMARK    5  A    between atoms: N3_13  and  C10_14
REMARK    6  A    between atoms: O2_22  and  C16_23
REMARK    7  A    between atoms: C16_23  and  C17_24
REMARK    8  A    between atoms: C17_24  and  C18_25
REMARK    9  A    between atoms: C18_25  and  N4_26
REMARK                            x       y       z     vdW  Elec       q    Type
REMARK                         _______ _______ _______ _____ _____    ______ ____
ROOT
ATOM      1  C2  UNL     1      -0.572  -4.081  -0.458  0.00  0.00    +0.000 A 
ATOM      2  C3  UNL     1      -0.039  -2.816  -0.175  0.00  0.00    +0.000 A 
ATOM      3  C4  UNL     1      -0.870  -1.697  -0.227  0.00  0.00    +0.000 A 
ATOM      4  C5  UNL     1      -2.247  -1.823  -0.537  0.00  0.00    +0.000 A 
ATOM      5  C6  UNL     1      -2.779  -3.093  -0.787  0.00  0.00    +0.000 A 
ATOM      6  C7  UNL     1      -1.935  -4.197  -0.750  0.00  0.00    +0.000 A 
ATOM      7  N1  UNL     1      -4.069  -3.291  -1.066  0.00  0.00    +0.000 NA
ATOM      8  C8  UNL     1      -4.854  -2.209  -1.093  0.00  0.00    +0.000 A 
ATOM      9  N2  UNL     1      -4.466  -0.949  -0.881  0.00  0.00    +0.000 NA
ATOM     10  C9  UNL     1      -3.163  -0.753  -0.614  0.00  0.00    +0.000 A 
ENDROOT
BRANCH   1  12
ATOM     11  C1  UNL     1      -0.188  -6.423  -0.740  0.00  0.00    +0.000 C 
ATOM     12  O1  UNL     1       0.308  -5.132  -0.407  0.00  0.00    +0.000 OA
ENDBRANCH   1  12
BRANCH  10  13
ATOM     13  N3  UNL     1      -2.687   0.572  -0.413  0.00  0.00    +0.000 N 
ATOM     14  H7  UNL     1      -1.917   0.740  -1.054  0.00  0.00    +0.000 HD
BRANCH  13  15
ATOM     15  C10 UNL     1      -3.435   1.748  -0.176  0.00  0.00    +0.000 A 
ATOM     16  C11 UNL     1      -4.682   1.735   0.468  0.00  0.00    +0.000 A 
ATOM     17  C12 UNL     1      -5.355   2.928   0.745  0.00  0.00    +0.000 A 
ATOM     18  C13 UNL     1      -4.776   4.147   0.406  0.00  0.00    +0.000 A 
ATOM     19  C14 UNL     1      -3.525   4.187  -0.198  0.00  0.00    +0.000 A 
ATOM     20  C15 UNL     1      -2.854   2.993  -0.476  0.00  0.00    +0.000 A 
ATOM     21  F1  UNL     1      -5.402   5.304   0.668  0.00  0.00    +0.000 F 
ATOM     22 CL1  UNL     1      -6.890   2.874   1.523  0.00  0.00    +0.000 Cl
ENDBRANCH  13  15
ENDBRANCH  10  13
BRANCH   2  23
ATOM     23  O2  UNL     1       1.306  -2.749   0.080  0.00  0.00    +0.000 OA
BRANCH  23  24
ATOM     24  C16 UNL     1       1.751  -1.753   1.003  0.00  0.00    +0.000 C 
BRANCH  24  25
ATOM     25  C17 UNL     1       2.442  -0.620   0.248  0.00  0.00    +0.000 C 
BRANCH  25  26
ATOM     26  C18 UNL     1       2.960   0.449   1.214  0.00  0.00    +0.000 C 
BRANCH  26  27
ATOM     27  N4  UNL     1       3.469   1.642   0.519  0.00  0.00    +0.000 NA
ATOM     28  C19 UNL     1       3.742   2.721   1.498  0.00  0.00    +0.000 C 
ATOM     29  C20 UNL     1       4.324   3.969   0.817  0.00  0.00    +0.000 C 
ATOM     30  O3  UNL     1       5.535   3.657   0.116  0.00  0.00    +0.000 OA
ATOM     31  C21 UNL     1       5.286   2.647  -0.869  0.00  0.00    +0.000 C 
ATOM     32  C22 UNL     1       4.718   1.368  -0.229  0.00  0.00    +0.000 C 
ENDBRANCH  26  27
ENDBRANCH  25  26
ENDBRANCH  24  25
ENDBRANCH  23  24
ENDBRANCH   2  23
TORSDOF 8
