REMARK  Name = /content/drive/MyDrive/Docking_Pipeline/raw_data/ligand_3672_3D.pdb
REMARK  8 active torsions:
REMARK  status: ('A' for Active; 'I' for Inactive)
REMARK    1  A    between atoms: C1_1  and  C2_2
REMARK    2  A    between atoms: C2_2  and  C3_3
REMARK    3  A    between atoms: C2_2  and  C4_4
REMARK    4  A    between atoms: C4_4  and  C5_5
REMARK    5  A    between atoms: C8_8  and  C11_11
REMARK    6  A    between atoms: C11_11  and  C12_12
REMARK    7  A    between atoms: C11_11  and  C13_13
REMARK    8  A    between atoms: C13_13  and  O2_15
REMARK                            x       y       z     vdW  Elec       q    Type
REMARK                         _______ _______ _______ _____ _____    ______ ____
ROOT
ATOM      1  C5  UNL     1      -0.858  -0.705   0.218  0.00  0.00    +0.000 A 
ATOM      2  C6  UNL     1      -0.061  -0.149   1.224  0.00  0.00    +0.000 A 
ATOM      3  C7  UNL     1       1.283   0.149   0.984  0.00  0.00    +0.000 A 
ATOM      4  C8  UNL     1       1.863  -0.104  -0.267  0.00  0.00    +0.000 A 
ATOM      5  C9  UNL     1       1.061  -0.665  -1.272  0.00  0.00    +0.000 A 
ATOM      6  C10 UNL     1      -0.284  -0.962  -1.032  0.00  0.00    +0.000 A 
ENDROOT
BRANCH   4   7
ATOM      7  C11 UNL     1       3.320   0.222  -0.556  0.00  0.00    +0.000 C 
ATOM      8  C12 UNL     1       3.612   1.714  -0.394  0.00  0.00    +0.000 C 
BRANCH   7   9
ATOM      9  C13 UNL     1       4.297  -0.575   0.290  0.00  0.00    +0.000 C 
ATOM     10  O1  UNL     1       4.151  -0.986   1.430  0.00  0.00    +0.000 OA
BRANCH   9  11
ATOM     11  O2  UNL     1       5.473  -0.781  -0.345  0.00  0.00    +0.000 OA
ATOM     12  H18 UNL     1       6.002  -1.287   0.307  0.00  0.00    +0.000 HD
ENDBRANCH   9  11
ENDBRANCH   7   9
ENDBRANCH   4   7
BRANCH   1  13
ATOM     13  C4  UNL     1      -2.311  -1.024   0.475  0.00  0.00    +0.000 C 
BRANCH  13  15
ATOM     14  C1  UNL     1      -4.722  -0.598  -0.093  0.00  0.00    +0.000 C 
ATOM     15  C2  UNL     1      -3.293  -0.067  -0.229  0.00  0.00    +0.000 C 
ATOM     16  C3  UNL     1      -3.214   1.353   0.337  0.00  0.00    +0.000 C 
ENDBRANCH  13  15
ENDBRANCH   1  13
TORSDOF 5
